192
Lattice="24.50006 0.0 0.0 -1e-06 24.50006 0.0 -1e-06 -1e-06 24.50006" Properties=species:S:1:pos:R:3:force:R:3:forces:R:3 TotEnergy=-1102.04902 cutoff=-1.0 nneightol=1.2 energy=-1105.980224609375 free_energy=-1105.980224609375 stress="-2.490219776518643e-05 -1.1108354556199629e-05 1.573353074491024e-05 -1.1108354556199629e-05 -1.79037022007833e-06 -2.745962410699576e-05 1.573353074491024e-05 -2.745962410699576e-05 5.650117964250967e-05" pbc="T T T"
O       14.86860000       3.68636000       0.48127200      -0.00228735       0.02646640       0.00855702      -0.00444235      -0.02018838      -0.02183652
H       13.81910000       2.52556000      23.94700000       0.00178815       0.03419220       0.02690980       0.03187666      -0.00077435       0.00455580
H       14.11020000       5.29261000       1.25913000       0.00834170      -0.05732150      -0.03530240      -0.01897259       0.01547461       0.02231853
O       20.75230000      21.42290000       4.95479000       0.06502030       0.02546650       0.00919665       0.01344176      -0.02248481      -0.03380423
H       21.71740000      21.99320000       6.53667000      -0.02793400      -0.02138880      -0.03921030      -0.02871644       0.02673423       0.01630709
H       22.15960000      21.65940000       3.60461000      -0.03725370      -0.00673840       0.03456040       0.00888042      -0.01690751       0.02674287
O       11.27830000      16.73050000      20.71110000       0.06842280      -0.04194970       0.01491210      -0.01113122       0.05538061       0.02300686
H       12.52950000      15.82400000      19.46890000      -0.04004520       0.03760810       0.01782730      -0.00456875      -0.02997334      -0.02477384
H       12.39850000      16.24170000      22.22510000      -0.04427630       0.01596640      -0.02939500       0.01371177      -0.02051468       0.00155127
O       20.59120000       3.51913000      22.03530000       0.02343390      -0.02231150       0.02316200       0.01257320       0.05097421      -0.02006999
H       19.01820000       2.53334000      22.32890000       0.03145520       0.01617680       0.00378786       0.00608350       0.02082412       0.02676149
H       22.04700000       2.86789000      23.11250000      -0.05123310       0.00337374      -0.02244830      -0.01891202      -0.07246020      -0.00366692
O       15.18590000      15.07440000      18.12460000       0.08331280      -0.06963970       0.02137400      -0.01472527      -0.02434418      -0.04920447
H       16.84320000      15.21990000      17.09880000      -0.04470040       0.00711176       0.02651770       0.02068661       0.00592580       0.03257813
H       15.74440000      13.56820000      19.42080000      -0.02778940       0.05576580      -0.05479350      -0.01121696       0.02474279       0.01175190
O        2.98151000      16.25730000      20.56930000       0.02726400       0.05769990       0.04396270       0.02275636       0.03598281       0.07274517
H        3.89281000      17.43750000      19.44160000      -0.01300140      -0.02642770       0.00473674       0.00520719      -0.00122023       0.00292195
H        3.31181000      17.19500000      22.27670000      -0.01505020      -0.03686820      -0.04353360      -0.01617413      -0.03887432      -0.07072180
O        5.59451000      17.96720000      16.05060000       0.02950330       0.05813170       0.02512460      -0.10313814      -0.03305510      -0.01069007
H        5.10992000      19.86900000      16.51100000       0.02520410      -0.07171800      -0.02705930       0.13371369       0.00118114      -0.01312795
H        7.53368000      17.70590000      16.06040000      -0.04042260       0.02717960       0.00031355      -0.02181318       0.01615429       0.02409043
O       21.92900000       6.02445000       4.76506000      -0.06298420       0.02110880      -0.01915610       0.05542365      -0.01501316       0.02209222
H       21.96700000       7.80575000       5.54867000      -0.00545422      -0.03769690      -0.01563910      -0.07962160       0.02970553       0.00331587
H       20.05540000       5.78488000       3.90490000       0.08048000       0.01168840       0.04052450       0.02170111      -0.02215203      -0.03075317
O        6.94182000      12.70280000       3.54791000      -0.04910600       0.09397630      -0.06929070       0.08044025       0.02679825       0.01506599
H        7.50865000      14.60550000       3.18116000      -0.00101318      -0.06115780       0.01831270      -0.04773109      -0.01718975       0.00247636
H        5.31877000      13.04360000       2.35075000       0.04772710      -0.02659260       0.05307540      -0.02256374      -0.01192933       0.00007252
O       14.70640000      18.60080000       6.72716000       0.08706300       0.08140850      -0.07750250      -0.05462606       0.06900002      -0.06670937
H       14.29160000      17.56810000       7.92575000      -0.01872830      -0.08840690       0.11386400       0.07650010      -0.03061349       0.01292793
H       13.09950000      18.52100000       6.03866000      -0.04882650       0.01603350      -0.03785870      -0.01632330      -0.03537487       0.04543679
O        1.01357000       7.27803000      16.81440000       0.06728640       0.00411700       0.00421540      -0.05535012       0.02331191       0.13158712
H        2.96487000       7.35760000      16.23180000      -0.06546890       0.00422749       0.02175360       0.05641895       0.01591879      -0.06131528
H       -0.01818700       6.79276000      15.43490000      -0.00194295      -0.00457019      -0.01635400      -0.00030836      -0.04817269      -0.06738995
O        0.33809200       5.97863000      11.35650000      -0.00122754      -0.08688170      -0.04155990       0.05756945      -0.03545562      -0.01942649
H        2.03436000       6.79471000      11.11250000      -0.03054340      -0.02387300      -0.01335250      -0.05036666       0.02062214      -0.01814872
H        0.22573700       3.90621000      10.22030000       0.01998000       0.10358000       0.05808280      -0.00698303       0.01950174       0.03687542
O        4.65855000      23.45810000       0.05697300      -0.01366440       0.03174270       0.05917300       0.03493064       0.08028611       0.04466824
H        4.72801000       0.40629500       1.37295000       0.00759543      -0.05265810      -0.04890970      -0.03587355      -0.06311468      -0.04948002
H        5.84982000      23.90050000      23.32250000       0.01104670       0.01102500      -0.01836150      -0.00733974      -0.01328398       0.00830814
O       24.28850000      11.70810000      19.50660000      -0.01712100      -0.04721930      -0.01268610      -0.02157123      -0.00920075      -0.00673474
H        0.97486000      13.04960000      19.48950000       0.01880400       0.00292624      -0.00087595       0.02429607       0.01230149      -0.00202085
H       24.86560000      10.08130000      18.62320000      -0.00330353       0.04676540       0.00652899      -0.00836785      -0.00972097      -0.00122617
O       13.56750000      22.66800000      19.77640000      -0.02108570      -0.00522518       0.00901364      -0.02934067       0.04165361      -0.00402819
H       12.90820000      22.21430000      21.45590000       0.00654704       0.00219663      -0.02800410       0.02568820      -0.00822445       0.01846777
H       12.47830000      21.82310000      18.51790000       0.01470900       0.00269367       0.01289430       0.00739306      -0.03495187      -0.01476822
O        8.62346000      13.62520000       8.58521000      -0.05132940      -0.00608560      -0.02422140      -0.07795534      -0.07610438       0.11343762
H        7.31667000      13.66120000       9.91128000       0.01173420       0.00354609      -0.00628978       0.05694015       0.07433839      -0.11829095
H        7.59278000      13.62710000       6.93248000       0.02891170      -0.00736209       0.04007460       0.01526451       0.00088443       0.00300816
O        1.64522000      11.25510000       2.66227000      -0.05820510      -0.04347340       0.04874650       0.04920205       0.00882747      -0.00462406
H        0.01196900      11.38850000       3.78169000       0.04092490       0.01356070      -0.02380500      -0.01365945      -0.00824269      -0.01311872
H        1.44683000       9.38379000       2.40805000       0.01434000       0.04142410      -0.00710225      -0.02910817       0.00079145       0.01377582
O       22.18820000      11.42890000       6.43090000       0.00659564       0.05242290       0.06416950      -0.00985637       0.02650802       0.08403369
H       20.69150000      12.32660000       5.91914000       0.00865152       0.01055110      -0.01259490       0.00249569       0.04249956      -0.01307157
H       22.70670000      12.95200000       8.35829000       0.00129674      -0.06643640      -0.05356120       0.01368352      -0.07011719      -0.06434290
O        7.86768000      12.00310000      20.84360000      -0.04340080      -0.01694120       0.06169930      -0.06827099       0.00432785       0.05004847
H        6.72150000      12.04790000      22.47490000       0.04212410       0.00398335      -0.06346020       0.03974708      -0.02159287      -0.00977055
H        7.98693000      13.70410000      20.27300000       0.00232530       0.01131610       0.00195544       0.02281743       0.01196497      -0.03962499
O       17.84940000      24.81240000      16.85000000      -0.04998220      -0.01552500      -0.00739195      -0.02025569      -0.04708868      -0.04917318
H       19.22050000       0.46788700      17.89160000       0.04081230       0.01029100       0.02516620      -0.00698364       0.00790491       0.04419182
H       16.53630000      24.23960000      18.03200000       0.00725753       0.00047689      -0.01809870       0.03071098       0.04922574       0.00153057
O        8.38343000       2.92805000      19.57870000      -0.09421720       0.00945468      -0.00487525       0.01412797      -0.00101011      -0.00549172
H        8.82177000       2.07637000      17.95870000      -0.01276300       0.01710770       0.01872880      -0.02687811      -0.00898835       0.03532200
H        6.18610000       3.38952000      19.56170000       0.10424600      -0.03204720      -0.01053110       0.01152056       0.01685908      -0.03410713
O       15.00860000       9.58426000      19.70070000      -0.01175550      -0.01891190       0.01921710      -0.00093604      -0.06341248       0.03016378
H       13.87190000       8.13013000      20.19410000       0.02443480       0.03016830      -0.00985262       0.01830821       0.05105809       0.01194880
H       16.75260000       9.04611000      19.84160000      -0.00861180      -0.01174940      -0.00951251      -0.01177465       0.01235570      -0.03512885
O       18.84820000      18.97130000      11.38300000      -0.02917830      -0.04493810       0.00033545      -0.09716298       0.00505067       0.00928609
H       19.25500000      17.40850000      12.43330000      -0.01585870       0.04129940      -0.02255710       0.00512206       0.03668252       0.00687214
H       17.13060000      18.66240000      10.57960000       0.04636840       0.00834437       0.02302650       0.09131032      -0.04624807      -0.01780759
O       12.34690000       1.78810000      15.38700000       0.01426970       0.04536550       0.03142790       0.02122466       0.02649281      -0.01951881
H       13.06750000       3.50933000      14.95210000      -0.01393790      -0.03099130       0.00233131      -0.00873526      -0.02292092       0.01606394
H       12.71580000       1.83712000      17.22470000      -0.00145357      -0.01086110      -0.02794970      -0.01328935      -0.00339353      -0.00078373
O        8.69482000      23.41940000       5.45703000      -0.01090590       0.10619800       0.05839910       0.10623914       0.00719877       0.01369098
H        7.33684000      23.97490000       6.80613000       0.02865240      -0.03669970      -0.04065870      -0.06943542       0.03293906       0.00192478
H        9.65501000       0.67003100       5.80217000      -0.01847430      -0.06962870      -0.01956860      -0.04117534      -0.03906053      -0.01524699
O        5.81394000       9.21969000      16.23480000       0.04631520      -0.03428740      -0.05798830       0.04293047       0.04042598       0.03981758
H        6.46414000       8.12248000      13.63490000       0.01565320       0.03741650       0.07367150      -0.01795503      -0.05378541      -0.06142148
H        7.55163000       9.29919000      17.07450000      -0.04658950      -0.00295967      -0.02747300      -0.02199031       0.00968912       0.01579761
O       14.82850000       5.23958000       8.78375000       0.05514350       0.07104770      -0.08245540       0.01310745       0.00754899       0.05516998
H       16.00900000       4.03146000       7.93233000      -0.02862520       0.00232981       0.02313730      -0.00018604       0.02474284       0.00206433
H       15.57970000       7.02868000       7.55182000      -0.03527840      -0.06299290       0.05349790      -0.01152099      -0.02110241      -0.05936817
O        3.43651000       8.81529000       8.67651000       0.04320010       0.03267620      -0.16273200      -0.01319383      -0.02004169      -0.01264511
H        4.94274000       7.86083000       6.98681000      -0.07083890       0.04641440       0.08137140      -0.02485975       0.03295283      -0.00339971
H        2.54556000      10.55090000       6.94260000       0.03512560      -0.07503720       0.06976930       0.04500755      -0.01775448       0.01326178
O       19.04350000       7.52414000      12.02160000      -0.00106513      -0.01277140      -0.01387750      -0.00544413      -0.05458992      -0.03248508
H       20.34280000       6.62463000      11.02550000      -0.02077150       0.01150330       0.01709570       0.00118325       0.00091600       0.06726772
H       17.39710000       6.66493000      11.77250000       0.02777710       0.00579907      -0.00127855       0.00079213       0.05994397      -0.04065247
O       12.87250000      15.42950000      10.54630000       0.00390372      -0.03975380       0.00306648       0.02314732      -0.00671644       0.00860961
H       14.59010000      14.92790000      10.98210000      -0.00339373       0.00769132       0.00821841       0.05025233       0.00158146       0.02126390
H       12.13990000      13.69080000      10.46350000       0.00091819       0.03997360      -0.00634995      -0.06851824       0.00127237      -0.03392024
O        2.13163000       2.38423000       5.75924000      -0.05797430       0.02643970      -0.00248831       0.07958712       0.02929635      -0.02895459
H        0.20636400       3.47811000       5.82419000       0.06055370      -0.02959250      -0.01943940      -0.02735552       0.02819600      -0.01006334
H        3.04267000       3.21306000       4.13647000       0.01518330       0.25799500       0.13640600      -0.05816805      -0.04419309       0.02890528
O       16.42970000       9.92106000       6.01431000      -0.01835410       0.01961240      -0.05939530      -0.01374837       0.02877714       0.01431058
H       15.78220000      10.51490000       4.16317000       0.03667310      -0.01741000       0.07234180       0.00404465       0.03404329      -0.00877335
H       17.99340000      10.81840000       6.44456000      -0.02011200      -0.01234370      -0.01060660       0.00131311      -0.06051149       0.00009671
O       17.98860000       1.23904000      11.38510000       0.04838090      -0.03587440       0.02459610      -0.04537105       0.00044902      -0.01494121
H       18.57080000      -0.06602800      12.72240000      -0.02179000       0.03985810      -0.03370610       0.04587506       0.03274964      -0.03414508
H       19.37570000      25.70330000      10.15840000      -0.01952850      -0.00166885       0.01053570      -0.01218766      -0.03830371       0.05254969
O       19.63840000      16.28670000       5.03643000      -0.05085490      -0.00055205       0.01245170       0.02549564      -0.04935307      -0.02539625
H       19.71470000      17.90020000       6.01853000       0.00123231      -0.02176720      -0.02200600      -0.01824810      -0.01130222      -0.01466343
H       17.73120000      16.00530000       4.86314000       0.05058480       0.01525820       0.00577282      -0.01176267       0.05732238       0.04114486
O       23.73510000      23.08340000       0.98219800      -0.13227200      -0.04012460      -0.06841140      -0.10791618       0.05404062      -0.00044754
H        0.89525700      23.26250000       1.11601000       0.09976660      -0.00581339      -0.00384523       0.11717644      -0.05582342      -0.00425279
H       23.22500000      21.99500000      23.84540000       0.03263950       0.04058410       0.06312490      -0.01257597       0.00554096       0.00437471
O        7.47679000       2.18743000      10.17660000       0.07068140      -0.02722920      -0.00317414      -0.00732684       0.05511435      -0.02855819
H        9.30782000       1.18812000      10.28570000      -0.06607290       0.04041790      -0.00071060      -0.03711596      -0.00185179       0.01818323
H        7.88790000       3.78034000       9.27878000       0.00253156      -0.02418080       0.01010780       0.04246827      -0.05829163       0.01304722
O       12.34150000      14.44020000       1.60772000       0.03148610       0.02505870       0.00207375      -0.06217623       0.03159773       0.06461643
H       13.38000000      12.94720000       1.53300000      -0.00454160       0.00199535      -0.00343347       0.06514907      -0.01060819      -0.07285443
H       13.69620000      15.74130000       1.78772000      -0.02870770      -0.01909380       0.00215610      -0.00481794      -0.01367706       0.00981231
O       16.80350000      13.16890000      12.92770000       0.03238970      -0.00313817      -0.04632290       0.03048293      -0.05296893      -0.05051479
H       17.70930000      12.19230000      11.46700000      -0.03917520       0.00973813       0.06617010      -0.04996708       0.03826281      -0.02004507
H       15.71520000      12.34260000      14.15150000       0.01473480      -0.01403530      -0.01779190       0.01788004       0.02789747       0.06992358
O        5.31662000      17.82400000       1.38019000       0.05543250       0.03629630      -0.02458770      -0.03246443       0.02805711      -0.07186759
H        5.04762000      19.33770000       2.48407000      -0.00697571      -0.02292980      -0.00586037      -0.00740038       0.02363686       0.03824264
H        6.91722000      18.34500000       0.35913200      -0.05114090      -0.01873090       0.03189810       0.04341834      -0.04482257       0.03454034
O        9.24949000       6.08202000       7.41017000      -0.00250231       0.00001115      -0.01345970       0.01793434       0.05057230       0.02990254
H        7.95238000       6.66660000       6.22261000       0.03073430      -0.00093224       0.00369084       0.00349586       0.00044890      -0.00196684
H       10.81870000       5.82766000       6.45878000      -0.01658960       0.00542943       0.01024380      -0.01960373      -0.05671490      -0.02684612
O       16.48850000       0.88890400       5.64643000      -0.03092120      -0.12679600      -0.05075550      -0.00188676      -0.04214339       0.01510037
H       15.77810000       0.73159500       3.86985000       0.01558880       0.02528070       0.03555300      -0.03103481       0.04984233       0.03353897
H       16.26050000      22.89580000       5.69865000       0.01863740       0.10400800       0.01351660       0.03946446      -0.00708397      -0.05612762
O       16.87130000      11.75370000       0.29842700      -0.02216740      -0.02193180       0.00288819      -0.00792271      -0.01688748      -0.07059520
H       15.75260000      10.85510000      23.56420000       0.02752450       0.02891630       0.00578893      -0.00374574       0.03319394       0.00300307
H       17.68110000      13.29780000      24.23010000      -0.00309228      -0.01309730      -0.00872420       0.00531796       0.00427643       0.07113262
O       20.81860000      18.35100000      20.67800000      -0.00611948       0.01406810       0.03032550       0.02412430      -0.03855044       0.01642818
H       19.73240000      19.20150000      21.95510000       0.00998065      -0.01850440      -0.01911210      -0.01253812       0.00008444      -0.02128300
H       21.58390000      16.91280000      21.59430000      -0.00666717       0.01155350      -0.00528893      -0.00627621       0.05114036       0.01331514
O       10.56300000       7.50989000      21.70830000      -0.05301420       0.00194102      -0.02235160      -0.04272947       0.00718011      -0.01029667
H        9.54113000       5.99371000      21.60290000       0.01989870      -0.01639080      -0.00068742       0.03221774      -0.01386717       0.00405245
H        9.24954000       8.45793000      20.67850000       0.03934920       0.00884369       0.02666950       0.00551176       0.00338613       0.00397789
O        5.15685000      13.88700000      13.33620000       0.00032639       0.00318242       0.05566940       0.05695873      -0.15371430       0.03607740
H        5.11084000      15.55470000      14.64190000      -0.00442011      -0.06226560      -0.04833920      -0.06453869       0.12813064       0.00309085
H        5.42762000      12.23200000      14.36620000      -0.00709513       0.04775660      -0.01668220       0.01240108       0.02770880      -0.04220100
O       11.14870000      19.58190000      14.83400000       0.03087750      -0.05726650      -0.02121520       0.01943329      -0.03845242       0.01584467
H        6.92062000      20.26850000      11.91640000       0.01723300      -0.00780847       0.00887599      -0.00111320       0.00719647      -0.01174822
H       12.45800000      18.08420000      14.24890000      -0.05938570       0.06081280       0.01649490      -0.02359479       0.04021406      -0.00039356
O        2.39784000       1.18463000      19.30960000      -0.00184695       0.05530640       0.02702580       0.03123529       0.04335656      -0.01398607
H        1.40069000       2.27322000      20.52100000       0.02265870      -0.03178410      -0.03155400      -0.05415130      -0.07367795       0.01256962
H        1.76146000      24.01630000      19.40030000      -0.01048870      -0.01757730       0.00676731       0.02177869       0.02066787      -0.00855421
O       19.05080000       6.05500000      17.38210000      -0.05127240       0.03066240      -0.05946220      -0.08530421      -0.08245742      -0.08042274
H       20.62020000       5.72046000      18.08930000       0.03240450      -0.00238165      -0.00309609      -0.07628608       0.07496795       0.07698211
H       18.94940000       6.65791000      15.46400000       0.02153680      -0.02292580       0.06395240       0.15966210       0.00744630       0.00625979
O        9.19173000       8.27069000      12.40800000      -0.00223132       0.00566190      -0.03509400      -0.04020179      -0.06419981       0.05975404
H        9.33740000       9.35513000      10.83750000      -0.00994551      -0.02117740       0.02808960       0.05560502       0.02648736      -0.02924473
H        9.96149000       6.64854000      11.91150000      -0.01792930       0.01335820       0.00341350      -0.02256130       0.03247113      -0.02194623
O       11.35650000      24.45550000       0.38552400      -0.04504680      -0.03965310      -0.00024626      -0.00815496      -0.02393107      -0.05564547
H       10.47930000      23.01050000       1.36431000       0.02117150       0.04526960      -0.02386790      -0.00160637      -0.00021157       0.00861461
H       10.16100000       0.44488500      23.51730000       0.01754560      -0.01091270       0.02067470       0.00474582       0.02063067       0.04479079
O        8.97077000       8.19453000       2.68980000       0.03423010      -0.15516200      -0.01718790       0.01129273       0.00304187      -0.04806555
H        8.63170000       9.86580000       2.56261000      -0.00973050       0.07782590      -0.02764750      -0.00446317       0.01071859       0.02854080
H        9.70259000       7.00591000       1.25252000      -0.02667860       0.07685720       0.03930310      -0.00724487      -0.02018200       0.01237452
O       10.21470000      17.89070000       5.77212000      -0.03494810      -0.02053440       0.03955890       0.07951838      -0.00106493      -0.06241396
H        9.87552000      17.15750000       7.51280000       0.01457560       0.00220712      -0.03556060      -0.01374756      -0.01098688       0.04597751
H        8.79835000      19.00990000       5.72812000      -0.00326452       0.01436130      -0.00869901      -0.06289682       0.00944723       0.01647478
O       14.04630000       6.76618000      13.80320000      -0.00825684       0.00457704      -0.00797050       0.00142094       0.00535526       0.00583562
H       13.66900000       6.57062000      12.03640000       0.01559600      -0.01745660      -0.01072540      -0.02774437       0.00543386      -0.01338250
H       12.94480000       8.16667000      14.06370000      -0.00167424       0.00872290       0.02088090       0.01521683      -0.01471219       0.00763480
O       23.38030000      22.50770000      17.86120000      -0.01465050      -0.03353360       0.01217320       0.03573990       0.02453147      -0.00152477
H       21.95410000      21.55270000      18.66170000       0.02551010       0.01173290      -0.01544350      -0.05246613      -0.03635816       0.00307684
H       23.13730000      24.26600000      18.00060000      -0.01334430       0.01384000      -0.00087167       0.01696889       0.01134854      -0.00512960
O        4.67210000       4.14373000       1.10239000       0.00796542      -0.02008220       0.02253700       0.01604986      -0.07801514       0.00182985
H        6.31924000       4.38223000       1.96853000      -0.02640320       0.02291040      -0.02340810      -0.00683190      -0.00473909       0.00398096
H        3.74890000       5.48957000       0.22588100       0.01583010       0.00904914       0.00942460      -0.00147377       0.08119529      -0.00404138
O       21.28870000      16.11480000      15.55440000       0.03403040      -0.09175910       0.05770400      -0.05014888      -0.04999648       0.01313503
H       21.32950000      14.28920000      14.95070000      -0.00767037       0.04332560      -0.00420302       0.03328766       0.04327182      -0.01343708
H       22.05920000      15.46180000      17.31510000      -0.02724970       0.04265250      -0.05477030       0.01311434       0.00344077       0.00763611
O       17.33870000      20.81150000       0.19300000       0.00633467       0.04576930       0.01856890      -0.10243675       0.09498014      -0.00589520
H       18.49480000      21.94720000       1.23553000      -0.03153750      -0.03083980      -0.01847650       0.08300801      -0.14926322      -0.00468922
H       15.76440000      21.80510000      -0.00248200       0.02655500      -0.01458510       0.00219006       0.02141726       0.05068833       0.01013705
O       13.12150000      24.08780000      10.68100000      -0.07257440       0.00920253      -0.03019300       0.01345197       0.05163359      -0.01899069
H       13.85000000      24.78720000      12.10850000       0.02925400      -0.00165508       0.02244870       0.00066650      -0.01200648      -0.02396149
H       13.95750000      22.96030000       9.61539000       0.02536470      -0.00823398       0.00138000      -0.00880489      -0.04255448       0.04164805
O        3.53786000      20.60680000       5.80485000      -0.02350630       0.01435390       0.01666260      -0.10790077      -0.13166139      -0.04564177
H        2.99760000      26.71840000       3.56498000      -0.03394780      -0.24184300      -0.11769800      -0.00788609      -0.02633782      -0.01145597
H        2.04060000      20.82400000       6.97101000       0.03685140      -0.00856790      -0.02484500       0.11916029       0.16067982       0.05157829
O       24.17690000      20.75350000       9.60266000      -0.06485320       0.03917310       0.08016150       0.03392586      -0.00186143       0.04128828
H       -0.97138200      22.41130000      10.43010000       0.03229020      -0.03460510      -0.03470980      -0.03744764       0.00940011      -0.03611822
H       23.26710000      19.84930000      11.05430000       0.02493020      -0.00332865      -0.04349110       0.01902562      -0.00669872      -0.00133698
O        0.75745100       7.95865000      23.55690000      -0.06021180      -0.07520040       0.02187290      -0.03352247       0.11171602      -0.00386531
H        0.37134000       7.95156000      21.77010000       0.00513134       0.00841521       0.00044654      -0.00087701      -0.08266612      -0.03432184
H       23.75850000       6.73652000      24.21880000       0.05426370       0.05064200      -0.02304330       0.02597809      -0.02003385       0.04070295
O        3.45681000      22.98420000      13.08120000      -0.04529690       0.01804460       0.05703460      -0.00064031       0.00911520      -0.02725047
H        5.17693000      23.30760000      13.41800000       0.01953610       0.01284210      -0.00180939      -0.00139194      -0.01344106       0.01925407
H        2.55840000      23.66160000      14.70510000       0.02733320      -0.02310700      -0.05196470      -0.00200391       0.00042820       0.00544367
O       21.93890000      14.21890000      23.79990000       0.05361710      -0.03350760       0.08782390       0.00440323      -0.01547805      -0.00347348
H       22.69860000      12.27400000      23.59190000      -0.02207110       0.08750860       0.01171780      -0.00090694       0.00831373       0.00138092
H       22.69140000      15.10710000       1.46886000      -0.03517760      -0.04840890      -0.09885450      -0.00267192       0.00323115      -0.00274843