192
Lattice="24.4019 0.0 0.0 -1e-06 24.4019 0.0 -1e-06 -1e-06 24.4019" Properties=species:S:1:pos:R:3:force:R:3 TotEnergy=-1103.50148 cutoff=-1.0 nneightol=1.2 pbc="T T T"
O       23.52660000      -3.73571000     -30.42060000       0.04887350      -0.06557810       0.01999500
H       22.46220000      -2.81378000     -31.35790000      -0.05588220       0.04791890      -0.04771630
H       23.79610000      -5.35403000     -31.58410000       0.00162836       0.02636540       0.02932180
O       47.10060000      45.84060000      -0.86743600      -0.01344020       0.00043278      -0.05016650
H       48.35180000      47.00420000      -0.21468700       0.00000224       0.01162960      -0.01093070
H       47.00680000      45.81120000      -2.89697000       0.02100760      -0.00540869       0.06135040
O       12.40230000       2.75334000      16.02360000       0.00234258       0.06464010      -0.08923650
H       13.13450000       3.40622000      17.43700000       0.03070180       0.01530790       0.06992900
H       11.78160000       1.20065000      16.17540000      -0.03307990      -0.09126490       0.01530650
O       -6.14365000      -9.23000000      -2.30915000       0.00988605       0.02635680       0.01094990
H       -4.37568000      -9.31089000      -2.68689000       0.01150790      -0.01842110      -0.01357060
H       -5.95985000      -7.72399000      -1.23151000      -0.01809370      -0.00654695      -0.00105018
O        5.32774000      32.20820000      18.65060000      -0.00449209      -0.04045990      -0.09125070
H        6.35187000      32.64880000      19.93390000       0.04085720       0.03047850       0.07103030
H        6.70019000      31.79070000      17.29520000      -0.03923860       0.00637079       0.01973110
O       -5.45796000       9.52714000       6.89940000      -0.04669780      -0.03883190       0.01813960
H       -6.27050000       8.71000000       8.47635000       0.02350620       0.02046350      -0.02955140
H       -6.05849000       8.41396000       5.49544000       0.01259330       0.01453630       0.01026360
O       45.62400000      28.13550000      13.77750000      -0.08482660      -0.01043680      -0.00022777
H       47.15110000      27.42370000      13.33990000       0.04972530      -0.02247350      -0.00745017
H       44.25700000      26.84340000      13.27050000       0.03047920       0.04559980       0.00996914
O       -2.98692000     -32.86070000       6.54815000       0.05051170       0.02301710      -0.04198300
H       -2.12405000     -31.96990000       4.95348000      -0.02372690      -0.02767460       0.04030510
H       -4.61099000     -33.55610000       6.05768000      -0.01003920       0.01363950       0.00123032
O       31.63740000     -33.53390000      17.14710000      -0.04125320       0.05868750      -0.12582300
H       30.79820000     -34.35850000      15.52780000       0.01500550       0.02428170       0.04717930
H       32.11540000     -34.70710000      18.20770000       0.02769340      -0.08960280       0.07449790
O        9.40388000     -26.81070000     -25.93310000       0.01663000       0.00931698      -0.03425160
H       11.10340000     -27.30470000     -26.38550000       0.01912740       0.02471530      -0.02181890
H        9.38369000     -28.04120000     -24.69010000      -0.03367650      -0.02923450       0.05097210
O      -10.40330000       0.60032500       7.43062000       0.02525820      -0.02243820       0.00657573
H      -10.17190000       1.77800000       6.04544000      -0.01670090       0.00370103       0.00592354
H      -12.06110000       0.44919600       8.22937000      -0.00534612       0.01545420      -0.00797953
O      -10.64530000      28.35820000      52.24140000       0.08031210      -0.01134950      -0.01291870
H      -12.32310000      28.55060000      52.65280000      -0.06302940       0.00101411      -0.00005471
H      -10.21080000      27.09540000      50.95300000      -0.01640840       0.00930014       0.00786268
O       12.05200000     -33.53580000     -14.30480000      -0.09940760      -0.01165960       0.01219600
H       13.39510000     -33.85470000     -15.30450000       0.06709990      -0.01722600      -0.04209990
H       10.59130000     -34.54740000     -15.09070000       0.03382300       0.01942590       0.02734260
O       28.37140000      14.47390000      37.37160000      -0.03407740       0.01351300       0.00979149
H       26.78300000      15.06100000      38.20750000       0.02833950       0.01131010       0.00459723
H       27.54680000      13.02180000      36.59930000       0.02218240      -0.01260980      -0.00400349
O        1.29108000       0.25051500       2.18527000      -0.11649500      -0.06599480       0.08877550
H        1.24533000      -1.00393000       3.76691000       0.01653140       0.05265280      -0.06361760
H        2.82700000       0.57801100       1.61681000       0.10602700       0.01349960      -0.02417230
O      -32.71080000      20.70940000      29.67620000      -0.02107740       0.01630260       0.01149530
H      -33.80080000      22.12980000      30.48970000       0.02330660      -0.02705380      -0.01819060
H      -33.79110000      19.28280000      29.32310000      -0.00459387       0.00802764       0.00837643
O      -32.85200000      11.73960000      25.20810000      -0.01816900      -0.01370870       0.01901190
H      -34.24330000      11.20920000      24.17170000      -0.00468779      -0.00168204      -0.00216278
H      -31.72330000      12.41900000      24.00180000       0.01917880       0.01649070      -0.01535220
O      -20.20020000      64.52380000     -20.57510000      -0.01594000       0.02000020       0.04462730
H      -20.50110000      65.58770000     -18.74930000       0.00781094      -0.05715470      -0.06166370
H      -21.01880000      62.77020000     -20.78600000       0.01404160       0.02887430       0.01598500
O       68.57780000      21.84070000      38.59310000      -0.03559100       0.06522170       0.01429590
H       67.90440000      23.82820000      38.53000000       0.01768490      -0.09606260       0.00708696
H       67.46900000      20.83050000      39.78350000       0.00987516       0.01998710      -0.01812830
O       57.34180000     -19.97380000       4.04288000       0.00705415       0.00926698      -0.01556760
H       56.76790000     -20.71350000       5.63660000      -0.01178660      -0.00012692      -0.02624990
H       56.53520000     -20.58570000       2.40698000       0.00820382      -0.00989643       0.04276330
O       29.05520000      17.97820000     -15.96160000       0.04976150       0.01210250      -0.03542770
H       30.99800000      18.01980000     -15.96640000      -0.02981360       0.01237250      -0.01271940
H       28.84910000      17.46040000     -14.31460000      -0.02086500      -0.02870500       0.04986290
O      -15.69730000       6.12989000      63.59500000      -0.03336590       0.06197110      -0.03769700
H      -14.68480000       7.32457000      62.29620000      -0.01041030      -0.04026370       0.03008600
H      -14.76610000       4.84232000      64.32600000       0.03704360      -0.02702830       0.00593710
O        6.51184000       1.72411000       0.29290500       0.03641120      -0.04993520      -0.04152320
H        5.70335000       2.41066000      -1.16987000      -0.01818970       0.01353180      -0.00735570
H        7.56217000       0.36169800      -0.76376400      -0.02106510       0.03397570       0.04886600
O       45.14940000       3.34727000      26.95700000      -0.02136220       0.03929270      -0.00005829
H       44.64490000       5.13367000      27.53700000       0.01621980      -0.04388310      -0.01708530
H       46.60160000       2.73311000      27.76170000       0.01910010      -0.00956678       0.01442810
O       -1.07510000      59.96960000      31.43210000       0.02501230       0.06895340      -0.01599780
H       -2.55030000      58.96080000      31.50670000      -0.02440200      -0.01264280      -0.00109489
H       -1.79054000      61.85930000      31.11650000       0.02102450      -0.04689690       0.01427190
O       11.17220000      33.01420000      11.27920000      -0.04944730       0.02071410      -0.01396430
H        9.68603000      34.19320000      10.61680000       0.05228130      -0.02420800       0.01306250
H       12.65740000      33.90540000      11.80700000      -0.00483168       0.01042000      -0.00263440
O      -17.56500000      20.01100000      18.57580000       0.01632690       0.05657010       0.02089130
H      -17.41820000      18.29620000      18.28520000       0.00136641      -0.04884170      -0.00868190
H      -16.41310000      20.49750000      19.96680000      -0.01813510      -0.00329363      -0.00807995
O       32.19080000      34.45090000      52.06290000      -0.02185090       0.07102790       0.01343360
H       32.52710000      32.84880000      51.62910000       0.03411970      -0.08564850      -0.00994936
H       30.38430000      34.30290000      52.06010000      -0.01450860       0.01513430       0.00407323
O       13.28240000      34.88160000      20.39010000      -0.04121910       0.22742800      -0.03574450
H       14.78730000      35.83050000      19.78270000      -0.01750530      -0.01971040       0.00453440
H       13.68250000      33.39330000      20.64640000       0.06186290      -0.21400400       0.02922780
O        3.55237000     -25.61060000      16.78870000      -0.04693950       0.05350450      -0.03351890
H        1.96531000     -26.44860000      16.50070000      -0.01209240       0.00705839       0.00996353
H        4.44469000     -26.99850000      17.25960000       0.05465290      -0.05250780       0.02805010
O       -0.36014400      18.03410000       2.53888000       0.02280720       0.00551020      -0.03347830
H        1.20740000      16.92120000       2.24170000      -0.02975340       0.03381360       0.01069370
H       -0.56920000      19.34190000       1.06288000       0.00040790      -0.04152430       0.02211710
O        1.43210000       1.29294000      12.75980000       0.03623860      -0.00689878       0.06397100
H        1.31459000       0.47191200      11.24420000      -0.00649826      -0.02765180      -0.05373430
H        2.62161000       0.04208300      13.68160000      -0.02724880       0.03786490      -0.00931483
O      -34.03720000      53.13300000     -28.72060000       0.05318500      -0.02630020       0.02128790
H      -32.39940000      53.51080000     -29.69460000      -0.03148470      -0.00355842       0.03089520
H      -33.42000000      51.92520000     -27.23300000      -0.01890400       0.04179120      -0.04402930
O        5.50694000      51.24000000     -16.23990000      -0.06592280      -0.00494447       0.03439270
H        4.70848000      52.65870000     -15.00590000       0.03858710      -0.03301340      -0.03031000
H        4.11213000      49.88870000     -16.11870000       0.04009690       0.02520680      -0.01126650
O      -35.51310000      40.31660000       3.01435000      -0.01962580       0.05841610       0.05657420
H      -34.68580000      39.17130000       2.08293000       0.03389270      -0.06085730      -0.05646010
H      -37.09930000      40.78110000       2.32692000      -0.01479090       0.00564892      -0.00446864
O       18.21030000      35.78250000      17.75270000      -0.02399490       0.00162908      -0.05469180
H       17.40120000      36.09710000      15.93130000       0.03200180       0.00037238       0.05186170
H       18.71370000      34.01560000      17.70150000      -0.00128979       0.00318759       0.00638722
O      -16.69560000     -12.47410000       8.93489000      -0.04257250      -0.00165080      -0.00072121
H      -16.51880000     -12.33460000       7.15824000       0.01657240      -0.00475245      -0.02343970
H      -18.57880000     -12.78270000       8.88077000       0.02966370       0.00304399       0.02394390
O      -45.28250000       3.00220000      20.61760000      -0.00293630       0.02488610       0.02729460
H      -45.42690000       1.63085000      19.47310000       0.00393105      -0.00611702      -0.02061250
H      -44.58930000       4.57557000      19.93380000      -0.00264815      -0.01204710      -0.01388240
O      -21.83930000     -14.11200000      35.24030000       0.04340960      -0.10284300       0.02394110
H      -21.68540000     -16.20640000      35.08630000       0.00877243       0.08489270       0.02075570
H      -23.00590000     -13.80380000      34.01770000      -0.05446730       0.01966930      -0.05284340
O       16.86700000      14.53510000      30.86210000      -0.03729770      -0.00436851      -0.02995970
H       17.19670000      12.81170000      30.30900000      -0.00183243      -0.00055202       0.01083360
H       15.53330000      15.10270000      29.61680000       0.02358130      -0.00565659       0.02674560
O      -22.22570000      -2.08605000      33.06040000      -0.05063510       0.07714750      -0.00827936
H      -21.59330000      -3.71406000      32.98010000       0.01414410      -0.04440830      -0.01014410
H      -23.90120000      -1.82770000      32.17950000       0.03146870      -0.02248760       0.01104730
O       41.99290000       7.64430000      35.83210000       0.04661130       0.00091043       0.02960550
H       41.12360000       6.12613000      35.47930000      -0.01696970      -0.02288180       0.00062735
H       43.50530000       6.96402000      36.81670000      -0.03268130       0.01500020      -0.02575210
O       -7.77438000     -30.41910000      -7.10860000      -0.00667468      -0.00415501       0.00328103
H       -7.25834000     -31.38010000      -5.55985000      -0.01988720       0.00640027      -0.03365360
H       -9.42730000     -30.96820000      -8.03475000       0.03671050       0.00147023       0.03345080
O       53.26660000     -18.82430000     -12.61090000       0.06367710       0.01302120       0.01263080
H       54.81210000     -19.25910000     -11.45050000      -0.01935320       0.02965320      -0.02767800
H       52.16550000     -19.98960000     -11.95720000      -0.05016990      -0.03967170       0.02144570
O        9.74086000       0.44035500      10.08080000      -0.02432330       0.02560190      -0.07021310
H        9.80671000      -0.37537700      11.61780000      -0.01336670      -0.01554510       0.04651270
H        7.95420000       0.92077400       9.37943000       0.03592410      -0.00647130       0.02504900
O      -34.26380000      -2.98010000      45.88870000       0.01412500      -0.00757935       0.04629820
H      -33.66110000      -3.32443000      44.25680000       0.00696831      -0.01023480      -0.02468950
H      -32.99900000      -3.84831000      47.11460000      -0.02778820       0.01795280      -0.02767540
O       12.42070000      -7.17203000      -9.41875000      -0.06616810       0.04702060       0.08501880
H       10.80440000      -7.66847000      -8.38700000       0.04304760       0.01875070      -0.02275460
H       12.46470000      -8.48826000     -10.47970000       0.01100900      -0.06432350      -0.06619660
O       20.85010000      17.13500000      11.90020000      -0.00620379       0.07306120      -0.00307735
H       20.48520000      19.16290000      11.92660000       0.01176490      -0.07313340       0.00453751
H       21.58050000      16.82640000      10.23580000      -0.00725140      -0.00037543       0.00132230
O       10.08970000      22.57670000      -9.57312000       0.06151590      -0.06667510      -0.06065700
H        8.76358000      22.19070000      -8.45883000      -0.02079480      -0.01981430       0.01576090
H       10.89160000      20.72200000     -10.35630000      -0.03842850       0.07807890       0.04766500
O       22.08670000      46.57510000      30.04770000       0.06186560       0.01738330      -0.08162190
H       21.03360000      45.65520000      30.99780000      -0.05842570      -0.04449630       0.04724590
H       22.42690000      45.40560000      28.54670000      -0.00569979       0.02666740       0.04001540
O       -6.50375000       7.03858000       2.56001000       0.02317890      -0.06346770       0.03712520
H       -7.38097000       8.38419000       1.98660000      -0.03625960       0.06467730      -0.03069090
H       -7.74728000       5.72831000       2.99583000      -0.00368593       0.01069130      -0.00632933
O       16.21520000     -21.94800000      12.52000000      -0.03655200       0.03402700       0.08959040
H       15.92150000     -22.94970000      11.16130000      -0.01840680      -0.03808940      -0.05861820
H       14.46070000     -21.96270000      13.67990000       0.05548360       0.00371140      -0.03039730
O        0.12348700      16.70790000      40.09330000      -0.06061850      -0.00448487      -0.04811020
H       -0.56205600      15.51350000      41.30330000       0.01266410      -0.00742494       0.01897370
H       -1.41671000      16.63160000      38.78410000       0.04210630       0.01200300       0.02150430
O       42.32150000      44.08590000       0.26097300      -0.08750940      -0.09570730       0.01522030
H       43.33050000      45.38340000       0.46075400       0.08046440       0.08705380       0.01288810
H       41.44150000      43.89810000       1.91444000       0.01205470       0.00943686      -0.01900170
O       23.01480000      13.80700000     -29.19900000      -0.12644500       0.08953230      -0.07290610
H       23.75830000      12.36090000     -28.91520000       0.06490030      -0.10531600       0.03468580
H       21.40500000      13.15400000     -30.22780000       0.04124800       0.02027420       0.03434170
O      -16.00830000      43.20430000       2.45063000      -0.03871330      -0.04521720       0.03936260
H      -17.24630000      41.65460000       2.63712000       0.02555100       0.04111020      -0.01161150
H      -16.24440000      43.89080000       4.18856000       0.01431360      -0.00537493      -0.02851140
O        9.61956000     -29.63180000      32.41770000       0.00488236      -0.12971200      -0.03984230
H       10.78970000     -31.02640000      33.18900000      -0.02408570       0.03379500      -0.01507590
H        9.88926000     -28.24180000      33.27900000       0.01752000       0.10052100       0.05684730
O        2.19489000      35.44890000       3.04128000      -0.04571320      -0.00409149      -0.02559820
H        0.66409400      35.29220000       4.29777000       0.03291450       0.00244686      -0.02538440
H        1.55761000      35.35270000       1.19029000       0.01703090       0.00098466       0.05249730
O       -7.12995000     -11.42180000      12.81460000       0.01658160      -0.04584580      -0.03528360
H       -6.33964000     -12.93600000      11.72590000      -0.02994280       0.06948260       0.03581070
H       -6.62505000      -9.71931000      12.23900000       0.00763461      -0.02690000       0.00114124
O       -4.87925000       6.10891000      18.41420000       0.01932220      -0.03048850      -0.04463180
H       -3.57126000       5.41804000      19.54060000      -0.01173900       0.01092750      -0.00615157
H       -4.45797000       5.34523000      16.64520000      -0.00348192       0.01700570       0.04940580
O       25.49000000     -14.18590000      -2.58219000       0.01042630       0.01426630      -0.00630319
H       24.77310000     -15.78020000      -2.44941000      -0.05352360      -0.03626820       0.04478080
H       26.34040000     -14.96820000      -3.93577000       0.04839920       0.02141210      -0.03426550
O       23.22210000       5.73703000      47.17240000       0.02517960       0.01562080      -0.05389150
H       22.84670000       4.89268000      48.62810000      -0.02911160      -0.02522860       0.05601510
H       24.76320000       4.87858000      46.72450000       0.00501997      -0.00460118      -0.01036950
O       16.63870000      25.86480000      48.74170000       0.05491940       0.05721350       0.05135540
H       18.49550000      26.16630000      49.40270000      -0.05284440       0.01011070      -0.00324691
H       17.00640000      24.55620000      47.71940000      -0.00416823      -0.06611010      -0.04891770
O      -16.41620000      10.57250000      22.46850000       0.02866170       0.00003274      -0.02628890
H      -14.72410000      10.54700000      21.61520000      -0.02712580       0.00419448       0.02438240
H      -16.21540000      10.75840000      24.28040000       0.00384909       0.00025920      -0.00315599
192
Lattice="24.28872 0.0 0.0 -1e-06 24.28872 0.0 -1e-06 -1e-06 24.28872" Properties=species:S:1:pos:R:3:force:R:3 TotEnergy=-1103.31523 cutoff=-1.0 nneightol=1.2 pbc="T T T"
O       23.00860000      -5.40355000     -28.43870000      -0.02079090       0.04034030      -0.01541210
H       21.90100000      -4.22690000     -29.52600000       0.03054680      -0.05531520       0.01786970
H       23.68160000      -6.99414000     -29.13460000      -0.01441480       0.01461910      -0.00280546
O       47.85360000      45.23730000       0.74071200       0.03454340       0.05155300      -0.01911320
H       48.75970000      46.99280000       1.30760000      -0.03497940      -0.06764010      -0.03090930
H       48.17520000      44.87610000      -1.15022000      -0.00371349       0.01392070       0.05067440
O       11.32930000       5.85414000      14.57740000       0.00566832      -0.01428160       0.04067890
H       11.87880000       5.42551000      16.37100000      -0.00854542       0.01054800      -0.04204150
H       10.94920000       4.21438000      13.77090000       0.00701390       0.01170290       0.00038976
O       -6.21037000     -10.59530000      -4.62577000      -0.01133770       0.06816370       0.05817280
H       -5.33345000     -11.42390000      -5.92568000       0.03397920      -0.01483720      -0.01992770
H       -5.37721000      -9.03036000      -3.67224000      -0.02213610      -0.05039470      -0.04119160
O        5.64040000      31.08270000      19.79500000      -0.00481936       0.01129440      -0.03819630
H        6.42719000      32.23080000      21.01420000       0.00390461       0.00323050      -0.00423704
H        6.03007000      31.73960000      18.02500000      -0.00248689      -0.01437820       0.03438310
O       -5.83905000      10.47720000       5.75800000       0.01374580      -0.00973192       0.04839140
H       -6.02365000       9.36851000       7.32614000       0.00146096       0.02057510      -0.04414790
H       -6.48229000       9.65414000       4.27103000      -0.01070670      -0.01402410       0.00268952
O       45.30620000      24.21600000      13.47420000      -0.29328800      -0.01210230      -0.05076780
H       46.82150000      24.31800000      13.43820000       0.28978000       0.02051790       0.00478858
H       44.93100000      24.11290000      11.56480000      -0.00543102      -0.00350347       0.04110520
O       -0.21162700     -27.88830000       8.09022000      -0.04950100       0.04852580      -0.09281520
H        0.23857100     -28.67450000       6.33117000       0.00223826      -0.00336336       0.04909230
H       -1.67633000     -26.62360000       7.14071000       0.05075300      -0.05124470       0.06228270
O       30.58260000     -33.12330000      20.21940000      -0.03168380      -0.02246870      -0.00507858
H       28.75900000     -33.66950000      19.64240000       0.05184490       0.01321480       0.03022430
H       31.33700000     -34.38510000      21.38930000      -0.01842990       0.01128510      -0.01919310
O       10.52590000     -26.30670000     -25.37020000       0.05304890      -0.01144960       0.01851760
H       12.30850000     -26.38720000     -26.09350000      -0.04651330       0.00554686       0.00496118
H       10.86440000     -27.25060000     -23.75450000      -0.02442760       0.01088420      -0.02313490
O       -8.16697000       2.82617000       8.31220000      -0.03784730       0.03796010      -0.07152920
H       -8.98346000       3.51510000       6.48349000       0.03132200      -0.03396400       0.08202650
H       -9.54471000       3.00864000       9.52707000       0.00159080      -0.00663177      -0.01190340
O      -11.23960000      27.87390000      51.56050000       0.14548800       0.03716800       0.01805990
H      -12.81990000      27.66530000      51.72160000      -0.18287400      -0.00155199       0.04876560
H      -11.15770000      26.91360000      50.13430000       0.03518820      -0.04016380      -0.06323430
O       15.18220000     -29.31040000     -14.05570000       0.02757290      -0.06584290       0.04152050
H       16.07540000     -30.67870000     -15.22060000      -0.03229760       0.03307660       0.02542580
H       14.99030000     -30.20810000     -12.22440000       0.00171156       0.03970410      -0.06885910
O       26.81060000      14.78140000      37.78920000       0.00318964       0.05675560       0.07886000
H       25.32720000      15.83370000      37.50740000      -0.00857956       0.01475520       0.01190260
H       26.69910000      14.04600000      36.29120000       0.00478965      -0.07405310      -0.08689150
O        0.60383800       2.55133000       2.37518000       0.00998385       0.03831580       0.02867130
H        0.51141100       3.75477000       3.85942000      -0.00743569      -0.02874260      -0.02691270
H        1.97743000       3.33254000       1.43917000      -0.00842131      -0.01478870      -0.00215557
O      -29.44880000      22.60600000      32.87270000       0.01903650      -0.05783820       0.05216120
H      -30.47790000      23.90540000      32.30610000      -0.03547700       0.02579580      -0.00542230
H      -30.40890000      21.40540000      34.12780000       0.01213150       0.03700090      -0.04760460
O      -33.63220000      11.83320000      23.42630000       0.02358490       0.02235710      -0.07279810
H      -34.67610000      11.61810000      21.75610000       0.02178720      -0.00497457       0.04646420
H      -31.99320000      12.60880000      22.57650000      -0.05082040      -0.02943160       0.02761890
O      -18.27760000      63.81590000     -20.72020000       0.01790920       0.05299940       0.02855510
H      -17.57990000      62.91130000     -19.31960000       0.01466640      -0.00318922       0.02138180
H      -19.05960000      62.51740000     -21.51950000      -0.03265800      -0.04955210      -0.04764720
O       68.30820000      19.76700000      39.60310000      -0.01434800      -0.00199614       0.00093230
H       68.53480000      21.58060000      39.33040000       0.00969350       0.00118983      -0.00775573
H       66.53150000      19.59340000      39.18620000       0.00020717      -0.00420693       0.00694374
O       56.00430000     -20.43530000       4.32796000       0.03257710       0.05034400       0.03668100
H       55.32570000     -21.03680000       5.89630000      -0.00733586      -0.01471540       0.00092137
H       55.53080000     -21.22980000       2.85609000      -0.02921230      -0.03639240      -0.04002220
O       30.80480000      17.79900000     -12.23530000      -0.10326500      -0.00823833       0.09663880
H       31.55890000      17.19280000     -13.56990000       0.06850050      -0.04175960      -0.09809230
H       29.43260000      16.41310000     -11.83970000       0.03214570       0.03739180       0.00468800
O      -17.74620000       7.74059000      62.88960000       0.05217770      -0.14785000       0.00157240
H      -17.68670000       9.35995000      62.96330000      -0.01387470       0.16308600       0.00559473
H      -15.77800000       7.49082000      62.92630000      -0.03810740      -0.02032440       0.00071574
O        5.84835000       1.31253000       0.11440900       0.04915310      -0.03446650       0.02728020
H        5.09356000       1.90195000      -1.41124000       0.00329229      -0.00915133      -0.01517520
H        7.34752000       0.04589800      -0.02354400      -0.04727610       0.03888870      -0.01529470
O       43.66530000       3.59820000      25.22520000      -0.00870796       0.05345610       0.06328590
H       42.62750000       5.12310000      26.23290000       0.02722270      -0.04567410      -0.05047070
H       45.22770000       3.54001000      26.27130000      -0.01861300      -0.00811392      -0.02232060
O       -0.67235200      60.36170000      29.88150000       0.04091090      -0.03091710       0.00725778
H       -2.34293000      59.59910000      29.84260000      -0.00977860       0.02729770      -0.00685855
H       -0.13790200      62.07710000      29.68410000      -0.03112270       0.01227610      -0.00434335
O       10.77560000      38.61250000      10.96410000       0.07427340       0.05500630       0.06862010
H        9.82077000      37.56280000       9.95798000      -0.00110516      -0.04487430      -0.03792510
H       12.70260000      38.39140000      11.43790000      -0.07612920      -0.01543650      -0.03582430
O      -17.12920000      20.54890000      19.73980000      -0.00847863      -0.06326940      -0.00247270
H      -17.37470000      18.56360000      19.99300000       0.00258768       0.05041410      -0.01021230
H      -15.92760000      20.92150000      21.05610000       0.00856572       0.01178290       0.00806437
O       31.66640000      33.27950000      51.94270000      -0.09370920      -0.05518910      -0.00148245
H       31.43420000      31.38190000      52.33770000       0.03098230       0.02568600      -0.00188249
H       29.53710000      33.34530000      51.51830000       0.07989150       0.02605900       0.00140188
O       12.19820000      34.09280000      19.45140000       0.04768620      -0.01691290      -0.02889180
H       12.72870000      35.07050000      17.87360000      -0.01488180      -0.01246690       0.02696920
H       13.35600000      32.52570000      19.53620000      -0.03621190       0.03311120      -0.00144659
O        2.74158000     -26.21850000      18.68640000      -0.01148560       0.02299430      -0.01520770
H        1.43400000     -27.39910000      19.13100000       0.01125560      -0.00734139       0.00655155
H        4.47627000     -26.71120000      19.17870000      -0.00548618      -0.01163380       0.00560241