192
Lattice="24.77208 0.0 0.0 -1e-06 24.77208 0.0 -1e-06 -1e-06 24.77208" Properties=species:S:1:pos:R:3:force:R:3:forces:R:3 TotEnergy=-1103.33778 cutoff=-1.0 nneightol=1.2 energy=-1108.2303466796875 free_energy=-1108.2303466796875 stress="-4.163760240771808e-05 -7.284840194188291e-06 1.721029002510477e-05 -7.284840194188291e-06 -9.438497727387585e-06 -2.4719776774873026e-05 1.721029002510477e-05 -2.4719776774873026e-05 4.6236305934144184e-05" pbc="T T T"
O       22.87150000      -3.40883000     -31.59680000       0.03573690      -0.06927350       0.01591220      -0.00564256      -0.01720617      -0.02093931
H       21.49680000      -2.87898000     -32.58340000      -0.02129740       0.00056052      -0.01524820       0.02982372      -0.00462160       0.00644072
H       23.08620000      -5.40534000     -31.83780000      -0.00985483       0.06200150      -0.00481571      -0.01684646       0.01527731       0.02007935
O       48.48950000      45.46800000      -1.60411000       0.04951790       0.07735110       0.07434150       0.01702586      -0.02442244      -0.03026100
H       49.32000000      47.29600000      -1.37013000      -0.02554120      -0.06188840       0.01884040      -0.03076379       0.02951299       0.01511310
H       48.36320000      45.78490000      -3.27047000      -0.02579140      -0.01142280      -0.09051040       0.00803211      -0.01610140       0.02874093
O       13.46970000       6.96756000      14.43180000      -0.06265520       0.06334800      -0.04285220      -0.01191240       0.05141880       0.02107353
H       14.38570000       7.53989000      15.74200000       0.04184070       0.02203860       0.05720880      -0.00069909      -0.02821204      -0.02085990
H       13.92120000       5.37237000      14.12800000       0.02892300      -0.08884370      -0.02008290       0.01383064      -0.01813426       0.00253101
O       -7.20703000      -9.97215000      -3.25954000       0.04395130      -0.05172160      -0.17497000       0.01357210       0.04539260      -0.01859658
H       -5.44085000     -10.67670000      -4.05295000      -0.05541110       0.02547990       0.04404230       0.00412441       0.01895561       0.02381502
H       -7.29141000      -9.56153000      -1.67863000       0.01357790       0.02897020       0.12824700      -0.01800387      -0.06569304      -0.00288855
O        6.01725000      33.47900000      19.44550000      -0.00830233       0.00080646      -0.01913010      -0.01159091      -0.02485129      -0.04496800
H        7.16407000      33.75210000      20.86080000      -0.00073176       0.00928191      -0.02492480       0.02041490       0.00402898       0.02971734
H        6.52546000      34.21430000      17.78410000       0.01238070      -0.01510100       0.03192900      -0.01060976       0.02740069       0.01195954
O       -5.16497000       9.04192000       7.85831000      -0.01133170       0.03085220      -0.05678280       0.01451672       0.03093755       0.07220426
H       -5.57285000       7.68280000       8.95723000      -0.00990011      -0.02898180       0.01586640       0.00536725       0.00578076       0.00338333
H       -6.06526000       8.76888000       6.15404000       0.02667600      -0.00288559       0.04307310      -0.01140953      -0.04110380      -0.07184035
O       46.03630000      26.74170000      12.87830000       0.06396970      -0.03514760      -0.00153422      -0.10843311      -0.02354090      -0.01469695
H       48.02950000      26.52900000      13.37520000      -0.07014550      -0.00133319      -0.03089110       0.13115171       0.00427346      -0.01329356
H       45.48940000      25.36300000      11.56470000       0.02698920       0.02999460       0.04046810      -0.02101702       0.01627968       0.02642974
O       -3.58434000     -32.94300000       6.80225000      -0.02030140      -0.01622730       0.12125100       0.04536168      -0.01077862       0.02096642
H       -2.79815000     -32.22780000       5.51831000       0.04715230       0.03861520      -0.09917090      -0.07075901       0.02453865       0.00329170
H       -4.86022000     -34.09090000       6.56304000      -0.03559610      -0.02789380      -0.02197160       0.01905729      -0.01867986      -0.02810537
O       31.95210000     -34.10100000      18.27740000       0.03276220      -0.01699800       0.06743380       0.07961802       0.02642906       0.01184732
H       31.11510000     -34.96890000      17.04640000      -0.03874570      -0.01548810      -0.05758730      -0.04390205      -0.01799110       0.00559935
H       32.25200000     -35.56340000      19.45840000       0.00486506       0.03767810      -0.00905456      -0.02536461      -0.01404724       0.00093292
O        8.73515000     -27.67070000     -25.19030000      -0.00185219      -0.07073450       0.03601040      -0.05535076       0.06615146      -0.06158653
H       10.47020000     -28.42370000     -25.39340000      -0.01949510       0.02175900       0.00527150       0.07919457      -0.03012539       0.01333785
H        8.01070000     -28.88230000     -23.71590000       0.02814920       0.04291750      -0.04096170      -0.01741652      -0.03464700       0.04505989
O       -9.18202000       2.57318000       8.67978000      -0.05864280      -0.07579920       0.05664530      -0.05884731       0.02220199       0.12735993
H       -9.81349000       2.38082000       7.02452000      -0.00453477       0.00675481      -0.03484910       0.05999340       0.01460300      -0.06267674
H      -10.61480000       1.27578000       9.66440000       0.04943450       0.05651100      -0.03168110       0.00081756      -0.04562810      -0.06194694
O      -10.84880000      28.07930000      53.21830000       0.03296000      -0.03545400      -0.05334270       0.05884371      -0.03698179      -0.01928994
H      -12.59030000      28.43890000      53.17810000      -0.02826520       0.00945022       0.00265418      -0.05368735       0.02249648      -0.02086925
H      -10.47980000      27.05680000      51.51040000      -0.00303534       0.02974790       0.05625940      -0.00584914       0.01945521       0.03813598
O       14.99200000     -31.53450000     -14.60080000      -0.00467954       0.01466160       0.04515890       0.03907775       0.07808188       0.04204061
H       15.72720000     -33.11540000     -15.02660000       0.00143191      -0.01319410      -0.00672412      -0.03659386      -0.06292291      -0.05201567
H       14.83170000     -31.54790000     -12.69470000       0.00295192       0.00168245      -0.04246520      -0.00800658      -0.01280432       0.01179066
O       28.82300000      14.90660000      38.48600000      -0.02073800       0.00017170      -0.00401328      -0.02267714      -0.00648777      -0.00518419
H       27.18050000      15.75720000      38.80400000       0.02253780      -0.01367010       0.00451904       0.02535946       0.01143894      -0.00307670
H       28.36390000      13.23300000      37.76320000       0.00611712       0.02032030       0.00152666      -0.00708133      -0.00898326      -0.00255795
O        1.20731000       0.97852000       0.94059400      -0.10397100      -0.01883720      -0.04578620      -0.02899512       0.04381985      -0.00511084
H        1.33253000       0.54157600       2.56922000       0.01785030      -0.01892140       0.07755320       0.02542159      -0.00858580       0.01825451
H        2.54902000       1.60063000       0.16645300       0.08111560       0.03494290      -0.03080220       0.01019868      -0.03523485      -0.01468757
O      -30.06300000      23.63080000      33.92000000       0.07813880      -0.01098020       0.00634076      -0.07715483      -0.07625879       0.11618793
H      -31.04850000      25.03360000      33.78670000      -0.05266570       0.05131970      -0.01612010       0.05906605       0.07602719      -0.12180548
H      -31.04750000      22.20680000      33.91040000      -0.03316260      -0.03996150       0.00263647       0.01403210       0.00032592       0.00138011
O      -33.69470000      10.42840000      25.17270000      -0.05496690       0.08071030       0.03737350       0.04673000       0.00722379      -0.00230736
H      -33.94640000      10.65690000      23.36420000       0.00013239       0.00434542       0.00870287      -0.01610001      -0.00983836      -0.01396006
H      -34.83460000      12.10440000      26.11950000       0.05413600      -0.07955910      -0.04821830      -0.02492520       0.00257897       0.01308135
O      -20.58080000      66.27530000     -20.28030000       0.02024090       0.07921200       0.05156400      -0.01131792       0.02713260       0.07821319
H      -20.28590000      66.58110000     -18.27990000      -0.00681725      -0.01448530      -0.05267880       0.00228446       0.04251809      -0.00441231
H      -21.13970000      64.69090000     -20.57000000      -0.02140200      -0.07224990      -0.00835301       0.01467197      -0.07099612      -0.06747772
O       67.22060000      21.36950000      39.63320000      -0.04196360       0.05824750       0.06840910      -0.06626508       0.00744507       0.04798838
H       67.09910000      23.29470000      39.20670000      -0.00039074      -0.05751700       0.01580400       0.03758145      -0.01691221      -0.01126998
H       66.20690000      21.29010000      41.57260000       0.04054720      -0.00805895      -0.08685720       0.02123539       0.00780329      -0.03464565
O       58.05010000     -19.92940000       4.00758000      -0.01968550      -0.03413860      -0.03989710      -0.01979205      -0.04713888      -0.04799861
H       57.29040000     -20.71820000       5.44111000       0.00132666       0.00255524       0.02762960      -0.00624157       0.01046041       0.04443233
H       57.42960000     -21.34910000       2.67655000       0.02763070       0.04069890       0.01880400       0.03203736       0.04580913      -0.00468692
O       30.07210000      18.08670000     -15.75970000       0.02680680       0.00733591       0.04267740       0.01012807      -0.00213759      -0.00443657
H       31.84870000      18.60300000     -15.53240000      -0.00338911      -0.00315338      -0.02234010      -0.02403051      -0.00791045       0.03277279
H       29.98750000      17.25860000     -14.09740000      -0.02169170      -0.00799461      -0.01232860       0.01231265       0.01724118      -0.03285008
O      -16.21010000       8.32928000      63.89590000       0.00280877       0.01762290      -0.04144470      -0.00179220      -0.06408963       0.02638169
H      -16.23290000       9.56153000      62.14860000       0.02855640      -0.05075720       0.07953360       0.02206220       0.05602756       0.01383804
H      -14.47760000       7.47043000      64.23080000      -0.03813720       0.03337870      -0.02388220      -0.01266371       0.00978693      -0.03365330
O        7.72606000       1.73836000       0.38955700      -0.06899050       0.00729056      -0.06558390      -0.09287256       0.00573937       0.00999051
H        6.13231000       2.41185000      -0.74115000       0.07190410      -0.02655240       0.03874160      -0.00314132       0.03283265       0.00435475
H        8.21038000      -0.03949800      -0.30105900      -0.00890027       0.02651880       0.02236530       0.09285150      -0.04168379      -0.01718502
O       45.69240000       3.41097000      24.85570000       0.03805620       0.00846205       0.06260090       0.02340763       0.02508120      -0.01935014
H       45.31050000       4.68905000      26.21190000      -0.02492100      -0.00263795      -0.03179590      -0.01274177      -0.01869777       0.01448972
H       47.05320000       2.73994000      25.98250000      -0.00925148      -0.01112410      -0.03429970      -0.01538103      -0.00801062       0.00179841
O       -0.53780600      61.38540000      32.16650000      -0.08281770      -0.04537730       0.01390000       0.10534786       0.00002023       0.01383108
H       -1.69776000      59.61840000      32.38730000       0.03274240       0.07317870      -0.01123980      -0.06859621       0.03555745       0.00287986
H       -1.93934000      62.73440000      32.41320000       0.04479580      -0.03350560      -0.00759554      -0.03836213      -0.03638900      -0.01842396
O       10.69680000      36.78730000      11.75430000       0.02066120       0.00527815      -0.06675400       0.03911773       0.04384626       0.04203606
H        9.49779000      37.21030000      10.26220000       0.02406710      -0.00326307       0.02432030      -0.01901753      -0.05429867      -0.06467506
H       12.39000000      36.39480000      10.79680000      -0.04948110       0.01423090       0.03697090      -0.02193130       0.00958005       0.01501399
O      -18.34380000      20.69060000      19.15360000       0.00514921      -0.00152892      -0.01108070       0.01013801       0.00545449       0.04772244
H      -18.09920000      18.92690000      18.81360000      -0.00892119      -0.01677030      -0.01326370      -0.00239717       0.02672858       0.00314864
H      -17.76420000      20.69550000      20.84370000       0.00685716       0.01522620       0.02785730      -0.01047716      -0.02202463      -0.05424959
O       32.65210000      34.61820000      52.32430000       0.07222960      -0.05373540       0.02551890      -0.01391408      -0.01703553      -0.01350242
H       32.75140000      32.79200000      53.11840000       0.00486451       0.03105580      -0.02803780      -0.02026037       0.02898321      -0.00097539
H       30.97480000      34.89930000      52.22730000      -0.07721990       0.01866260      -0.00121837       0.04052245      -0.02040869       0.01133931
O       13.34840000      34.80360000      19.90440000      -0.09821470      -0.11442900       0.15997000      -0.00489826      -0.05167030      -0.02692366
H       14.16150000      35.25600000      18.64120000       0.11335400       0.07679680      -0.16688000       0.00174977       0.00352424       0.05766173
H       13.54680000      32.91550000      19.80330000      -0.00705649       0.03194370       0.01119120      -0.00099712       0.05626570      -0.03483437
O        2.81167000     -25.51470000      18.01330000       0.03069350      -0.06424850       0.03443310       0.01340839       0.00053449       0.01276870
H        1.22290000     -26.35640000      18.44780000      -0.00431225       0.01361600      -0.01442280       0.04625315       0.00104291       0.01786422
H        4.00190000     -27.09430000      18.61060000      -0.02264540       0.05129470      -0.02688190      -0.05591925      -0.00334208      -0.03674776
O       -0.96201800      18.95550000       3.19129000       0.04229420      -0.00856300      -0.02783210       0.08121043       0.02927914      -0.03021153
H        0.86617000      18.24450000       3.45333000      -0.04828130       0.01974490      -0.01296730      -0.03531712       0.02521964      -0.00731984
H       -1.19736000      19.42200000       1.30601000       0.01097750      -0.01496880       0.04342010      -0.06006949      -0.04046433       0.02593692
O        2.33005000       1.35495000      13.26960000      -0.00440896       0.00513372       0.04517850      -0.01004836       0.02260323       0.01018148
H        2.90678000       0.03931800      12.16950000       0.00118500      -0.00689933      -0.00851333       0.00716548       0.03880064      -0.01285143
H        2.74877000       0.85410300      15.06120000      -0.01103790      -0.00839821      -0.02629730       0.00149395      -0.06085949       0.00076794
O      -34.17810000      53.80850000     -30.27960000      -0.19050700      -0.12430200       0.16424800      -0.04407415       0.00018987      -0.01802024
H      -32.90860000      54.45170000     -30.90600000       0.20286200       0.08812960      -0.08332660       0.04428755       0.03463268      -0.03266521
H      -33.73460000      52.91170000     -28.48640000      -0.01231520       0.03687590      -0.07094290      -0.01387178      -0.04271107       0.05628614
O        7.05041000      52.21960000     -16.22110000       0.02684510       0.06322810       0.02487860       0.02429928      -0.04537190      -0.02152025
H        6.37437000      53.57640000     -14.99400000       0.00559187      -0.02897040      -0.01683260      -0.01672522      -0.01261331      -0.01286900
H        5.80820000      51.00050000     -16.37830000      -0.03394060      -0.03410690       0.00188426      -0.00901056       0.05495762       0.03932084
O      -37.44940000      39.70200000       2.19321000       0.01584470      -0.04329910      -0.04738740      -0.10779101       0.05469532       0.00162910
H      -38.23750000      38.91540000       0.57381400       0.01169360       0.03054080       0.05024130       0.12380910      -0.05839736      -0.00275202
H      -38.52180000      40.94830000       2.97278000      -0.02163060       0.01221370      -0.00243672      -0.01800314       0.00847936       0.00065984
O       18.26220000      35.11620000      16.40450000       0.01199510      -0.01582560       0.03957020      -0.00398246       0.05016731      -0.02704157
H       17.99880000      35.72930000      14.76660000      -0.00546778       0.00309718      -0.02843470      -0.03361631      -0.00379555       0.01765511
H       19.03050000      33.42140000      16.43840000      -0.00807147       0.00680055      -0.00826866       0.03922144      -0.05422842       0.01350098
O      -17.31080000     -12.32840000       7.67871000      -0.03022520      -0.08218770      -0.01395620      -0.06047927       0.03029037       0.06464966
H      -16.85670000     -13.33090000       6.02003000      -0.01041810       0.03333900       0.04396070       0.06664444      -0.01087761      -0.07361427
H      -18.63680000     -13.61750000       8.53764000       0.04078020       0.05164180      -0.02885320      -0.00524354      -0.01424381       0.01124964
O      -45.50960000       3.59905000      20.56670000       0.04014410       0.08235950      -0.02891600       0.02699941      -0.05221879      -0.04791441
H      -45.18350000       1.97553000      19.89200000      -0.00488247      -0.01717510      -0.01771560      -0.04446277       0.03590444      -0.01664916
H      -44.50140000       5.02406000      19.39730000      -0.03612420      -0.05600440       0.05274360       0.01574108       0.02738920       0.06668399
O      -21.42410000     -14.08470000      35.65420000      -0.04237340      -0.01073140      -0.02182700      -0.03183333       0.02251821      -0.07026291
H      -21.80610000     -15.69190000      36.36180000       0.02013920      -0.02145990       0.01771550      -0.00899500       0.02153056       0.03844837
H      -23.01370000     -14.11070000      34.59960000       0.02639760       0.02995090       0.00155683       0.04218428      -0.03813054       0.03657996
O       15.96570000      13.72840000      31.28470000      -0.05060280       0.01070310      -0.05104110       0.01798782       0.05246976       0.03134968
H       15.25560000      12.13550000      31.93300000       0.00801742       0.02157080      -0.01133860       0.00381075       0.00131916      -0.00137880
H       14.72140000      14.30900000      29.75200000       0.04100920      -0.03034750       0.06136360      -0.02075513      -0.06171648      -0.02867539
O      -21.04740000      -1.44962000      33.72020000      -0.05041710       0.06713480      -0.03632470      -0.00727355      -0.03603366       0.01242730
H      -20.29300000      -2.95266000      33.58000000       0.04595320      -0.08288420       0.00825997      -0.02683819       0.04456248       0.02986741
H      -22.12520000      -1.61050000      32.16300000      -0.00150190       0.01670720       0.03297100       0.03527800      -0.00889109      -0.04826321
O       43.02490000       5.50482000      35.98800000       0.07227320      -0.00996114       0.03032640      -0.00820501      -0.02220731      -0.06497584
H       42.38470000       4.18973000      34.89930000      -0.01425350       0.00288803      -0.00134057      -0.00017231       0.02750396       0.00740252
H       44.72530000       4.57566000      36.68240000      -0.05805700       0.02644210      -0.02094630       0.00527996       0.00920855       0.06591523
O      -10.11580000     -30.95160000      -6.19982000       0.02101760      -0.05361360       0.02708000       0.02415931      -0.04334296       0.01157723
H       -9.02085000     -32.31580000      -5.22909000      -0.02727990       0.04007100      -0.02593790      -0.01249040       0.00039880      -0.01946906
H      -11.31280000     -32.03420000      -7.25417000       0.02210570       0.02227520       0.01324910      -0.00783407       0.05046156       0.01013920
O       54.50480000     -19.38100000     -12.50370000      -0.00153026      -0.00092570       0.06866240      -0.04470513       0.00933550      -0.00787227
H       55.60270000     -18.35740000     -11.23080000      -0.01121140      -0.01963320      -0.03552590       0.03184380      -0.01552110       0.00285471
H       53.65770000     -20.78280000     -11.38190000       0.01720500       0.03215440      -0.04695130       0.00584001       0.00215785       0.00268085
O       11.08320000       0.00546600      10.34700000      -0.02752770       0.01700300       0.03561520       0.05440217      -0.15132610       0.03599562
H       10.85100000      -0.46511000      12.13540000       0.00889605      -0.00208291      -0.01578090      -0.06450497       0.12571079       0.00307190
H        9.67083000       1.31474000      10.28260000       0.02023600      -0.01882320      -0.02262160       0.01357940       0.02699183      -0.04055101
O      -35.50870000      -3.65612000      48.15510000       0.01421570       0.01199380       0.05429500       0.02175825      -0.04041924       0.01253258
H      -35.99270000      -4.35408000      46.62080000       0.00569700      -0.02674520      -0.03791410      -0.00381925       0.00844945      -0.01140529
H      -34.43500000      -4.79887000      49.19430000      -0.01631270       0.01268990      -0.02185030      -0.02427448       0.04155469       0.00229473
O       11.67750000      -7.88873000      -9.49710000       0.00582177      -0.09582360      -0.03796390       0.03136159       0.04898167      -0.00522587
H        9.99521000      -7.50855000      -8.98267000      -0.01241710      -0.01210810       0.00376911      -0.05752824      -0.07585702       0.01403258
H       11.63350000     -10.02930000     -10.06650000      -0.00609235       0.09551370       0.01684130       0.02682692       0.02148415      -0.01259629
O       21.91660000      18.01800000      12.11220000      -0.07684520       0.05204900      -0.00697791      -0.08407107      -0.08421272      -0.07943010
H       20.44610000      19.06430000      12.93710000       0.04882730      -0.03176420      -0.00607924      -0.08152956       0.07869051       0.07956482
H       21.23540000      18.22510000      10.39260000       0.02236010      -0.01628050       0.00654710       0.16523214       0.00367632       0.00287599
O       10.60240000      22.64500000      -9.20216000       0.02772720       0.01357620      -0.03600420      -0.04042353      -0.06273541       0.05696294
H        9.30964000      22.48110000      -8.04572000      -0.03610470      -0.00341497       0.03212070       0.05332878       0.02866264      -0.02740582
H       11.34490000      21.02130000      -9.36464000       0.00832096      -0.01027710      -0.00029523      -0.01783747       0.03146212      -0.02214248
O       24.02830000      48.20270000      30.75540000      -0.05672720       0.04677260       0.06343420      -0.00725457      -0.02380277      -0.05377930
H       22.30990000      48.21150000      31.87240000       0.06423310       0.00594046      -0.03577900      -0.00202825       0.00196967       0.00911662
H       23.83410000      46.70060000      29.89970000      -0.00292946      -0.05006770      -0.03378080       0.00720673       0.01958754       0.03895008
O       -6.66726000       6.63802000       3.04863000      -0.00677385      -0.07040170       0.07264760       0.01034898       0.00247194      -0.04586442
H       -7.09191000       7.91423000       2.01747000      -0.02378680       0.06716160      -0.05567090      -0.00482541       0.01505514       0.02648435
H       -8.35323000       5.86140000       3.52929000       0.02963880       0.00372369      -0.01217750      -0.00814218      -0.02251014       0.01295202
O       14.61500000     -23.42740000      15.02440000      -0.01779480      -0.05843070      -0.09474540       0.08289143      -0.00279437      -0.06480001
H       13.12290000     -24.58000000      14.84110000       0.02919390       0.02917430       0.02526990      -0.01583975      -0.01149738       0.04800291
H       14.70690000     -22.53160000      16.46780000      -0.00722092       0.02928650       0.07563030      -0.06441568       0.00931280       0.01547837
O       -0.93517900      16.15260000      40.82750000       0.01681520      -0.01420690       0.03390510       0.00291760       0.00849860       0.00390089
H       -1.33017000      14.53370000      41.72490000       0.00111917       0.02645020      -0.00968868      -0.03080159       0.00129153      -0.01056843
H       -1.41542000      16.12630000      39.10370000      -0.01513000       0.00049312      -0.01388020       0.01466736      -0.01535607       0.00732899
O       41.58430000      43.00740000       2.24300000       0.10584500       0.02632870       0.02613390       0.03450432       0.02481002      -0.00275076
H       42.84010000      42.62710000       3.69085000      -0.03218320       0.01831590      -0.04765330      -0.04702688      -0.03402644       0.00452075
H       40.24890000      42.09170000       2.71571000      -0.07592470      -0.04686240       0.01766290       0.01417697       0.01102403      -0.00392528
O       21.99400000      12.73720000     -30.38000000      -0.01009800      -0.03491010      -0.02247230       0.01281027      -0.06755835      -0.00091461
H       23.12270000      11.38470000     -29.79170000       0.00389429       0.01510990       0.01255160      -0.00545902      -0.00773232       0.00604438
H       20.99400000      11.77390000     -31.67470000      -0.00091261       0.01816810       0.01821090       0.00020022       0.07687891      -0.00651883
O      -15.92820000      43.17250000       3.82602000      -0.01118400      -0.00857457       0.02616360      -0.04758094      -0.04635398       0.00834903
H      -17.49900000      42.01080000       3.76063000       0.02356120       0.03032850       0.01558010       0.03872719       0.04358253      -0.00964378
H      -15.53230000      43.75550000       5.67338000      -0.01400330      -0.01413980      -0.04459500       0.01538243       0.00117973       0.00942887
O       10.34050000     -29.77380000      33.32940000       0.01573810       0.00500633       0.01604980      -0.10352695       0.09425329      -0.00409845
H       12.14640000     -30.41650000      33.51990000      -0.03251840       0.01233310       0.00758006       0.08143865      -0.15602469      -0.00633175
H       10.13520000     -28.17690000      34.31300000       0.01512390      -0.01731860      -0.02290870       0.02369234       0.05826965       0.01025348
O        2.63947000      36.46650000       2.87631000      -0.09153480      -0.07252530       0.00085552       0.01092833       0.05227901      -0.01934510
H        0.82648200      36.05200000       3.89882000       0.07803640       0.02927010      -0.02666680       0.00204602      -0.01259411      -0.02283843
H        2.34826000      35.07810000       1.54285000       0.01244290       0.04437250       0.02415870      -0.00686438      -0.04304326       0.04051792
O       -9.04589000     -13.48600000      11.82590000       0.05023240      -0.06405070      -0.02734780      -0.11014977      -0.13287438      -0.04308531
H       -9.61175000     -15.29530000      12.35380000       0.01415840       0.04388540      -0.01355860      -0.01008594      -0.02697925      -0.01144600
H       -7.38540000     -13.88520000      10.74790000      -0.05831740       0.01134550       0.02996650       0.12060341       0.15976608       0.05033265
O       -4.82056000       5.33608000      17.34290000       0.02324590       0.00383470      -0.00351204       0.02590265      -0.00357295       0.03970226
H       -3.39952000       5.41314000      18.59340000      -0.01300550      -0.00351462      -0.01429130      -0.03420687       0.01107998      -0.03527272
H       -4.18511000       4.41860000      15.86820000      -0.00934829       0.00296405       0.01459620       0.02294158      -0.00478487      -0.00784716
O       25.95490000     -14.91020000      -3.43364000       0.02467200       0.00459367      -0.02876260      -0.03106621       0.11649761       0.00029903
H       25.25960000     -16.62170000      -3.55246000       0.00400453       0.01496800       0.00318112      -0.00021159      -0.08940749      -0.04031814
H       27.47340000     -14.77070000      -4.61891000      -0.03404490      -0.01202570       0.03378190       0.02242608      -0.01977964       0.04220488
O       23.73480000       5.30787000      45.64710000      -0.00550760       0.01587740      -0.02041160      -0.00285307       0.01007860      -0.02502551
H       22.95790000       4.20387000      46.89010000       0.01280660       0.00020506       0.00720755       0.00002312      -0.01429587       0.02079344
H       25.51540000       5.10718000      45.22290000      -0.00807235      -0.03024860       0.01220470       0.00327410      -0.00301683       0.00626582
O       16.39930000      25.76000000      49.38540000      -0.06286540      -0.03699790      -0.03822890       0.00448398      -0.01172585      -0.00234987
H       18.09580000      25.95220000      49.59350000       0.06518400       0.01973870       0.01231340      -0.00047627       0.00910726       0.00123440
H       16.25810000      24.15290000      48.41770000      -0.01203960       0.01888870       0.01847180      -0.00412471       0.00251408      -0.00385920