192
Lattice="23.32914 0.0 0.0 -1e-06 23.32914 0.0 -1e-06 -1e-06 23.32914" Properties=species:S:1:pos:R:3:force:R:3:forces:R:3 TotEnergy=-1102.04053 cutoff=-1.0 nneightol=1.2 energy=-1105.3613994268155 free_energy=-1105.3613994268155 stress="-3.1654799347684356e-05 -9.349368801676953e-06 1.761867412769145e-05 -9.349368801676953e-06 -5.561151807407211e-06 -2.679401665797349e-05 1.761867412769145e-05 -2.679401665797349e-05 5.286564517259033e-05" pbc="T T T"
O       13.88720000      13.29550000       4.87670000       0.04092430       0.00908252      -0.10067600      -0.00438627      -0.01908572      -0.02363384
H       13.85290000      14.02280000       2.91000000       0.00532300      -0.02716060       0.09135970       0.03127370      -0.00225361       0.00678109
H       12.27380000      13.63720000       5.43937000      -0.04176240       0.00922377       0.01039580      -0.01599830       0.01568368       0.02349649
O        8.77569000      10.68680000      10.06030000       0.04529960      -0.01036000       0.01611980       0.01893249      -0.01754801      -0.03059019
H        9.95837000       9.46254000       9.26359000      -0.02427930       0.01090950       0.01751780      -0.02749964       0.02449549       0.01398669
H        8.80599000      10.24860000      11.84240000       0.00634848       0.00753279      -0.01099490       0.00465855      -0.01466138       0.01977781
O        7.76915000      20.14230000       2.49719000      -0.05441210       0.05655590      -0.01020860      -0.01043315       0.05930284       0.02135213
H        6.81033000      21.86440000       2.54334000       0.03362840      -0.04291740       0.01137760      -0.00276101      -0.03094933      -0.02294723
H        6.35809000      19.20460000       1.75995000       0.00933499      -0.00599705       0.00398766       0.01456599      -0.02534633       0.00115542
O        7.89095000       2.66660000      12.50280000      -0.02367320      -0.01655040       0.04203930       0.01308657       0.04453818      -0.01999169
H        6.95320000       1.90886000      13.95760000       0.01821110       0.02603570      -0.02857310       0.00691716       0.02149512       0.02574525
H        9.63546000       2.58254000      13.11250000       0.01428710       0.00087816      -0.00027006      -0.01765176      -0.06644358      -0.00247285
O       22.02330000      23.23690000      13.72540000       0.01798070       0.02266240       0.01467890      -0.01350545      -0.02816907      -0.05268910
H       23.27920000      24.33440000      12.92550000      -0.01263490       0.00000885       0.01169740       0.02306495       0.00597213       0.03518678
H       21.63440000      22.08260000      12.39650000      -0.00748080      -0.02201690      -0.01652360      -0.01267062       0.02835833       0.01395654
O       20.77970000      15.27590000      22.68940000       0.00034369       0.00376348       0.02517380       0.02205002       0.03504128       0.07958587
H       19.02070000      15.19610000      22.13170000       0.01075400       0.00360103       0.01014750       0.00511844       0.00525654       0.00161950
H       20.99790000      14.54720000      24.39470000      -0.01231340       0.01063780      -0.02311800      -0.01827387      -0.04154321      -0.07605723
O       21.44170000      11.61830000       8.85419000      -0.00031170      -0.00467331       0.02399540      -0.10390391      -0.03211706      -0.00511259
H       25.37030000       6.16664000       6.11150000      -0.07565480      -0.00893736       0.07507660       0.12431321       0.00079244      -0.01552251
H       22.27910000      11.87310000      10.55450000      -0.01060560      -0.00548209      -0.03542570      -0.01820244       0.01477596       0.02299706
O       22.32560000      20.60280000      18.33240000      -0.07123020      -0.00254557      -0.04938110       0.04774857      -0.01487519       0.02084403
H       22.49280000      21.45610000      16.67660000      -0.00742448      -0.00321988       0.00707939      -0.07360720       0.02589904       0.00487323
H       23.93960000      20.48200000      18.87070000       0.08267650      -0.00130407       0.03018880       0.02263156      -0.01831960      -0.02832220
O       12.95750000       2.42905000      14.13740000       0.04324100      -0.02806330      -0.04726830       0.08500687       0.02894744       0.01381435
H       13.54320000      -0.60338600      15.20350000      -0.00538180      -0.00163439       0.00318562      -0.05143231      -0.01894779       0.00305179
H       14.33980000       2.39179000      12.59980000      -0.06109980       0.00228498       0.07062910      -0.02322039      -0.01411491      -0.00095409
O        9.38755000       7.60862000       2.75009000       0.01874340       0.01358380      -0.00114350      -0.05942905       0.07331140      -0.07000201
H       10.59460000       6.99042000       1.36080000      -0.02340700       0.01167600       0.00729211       0.08142658      -0.03202883       0.01389816
H        7.70126000       6.99133000       2.53061000      -0.00143172      -0.01007010      -0.00362772      -0.01956650      -0.03743143       0.05098310
O        7.52701000       0.31242100      18.24900000      -0.01061530      -0.00375953       0.00051048      -0.06439638       0.02545942       0.13916889
H        6.73084000       2.08807000      18.52750000       0.01569190      -0.01834860      -0.00579794       0.06253075       0.01584382      -0.06831357
H        8.66720000      -0.02531300      19.60970000       0.00820431       0.00482365       0.00113267       0.00081683      -0.04900783      -0.06762831
O       19.64160000       0.58967600       3.57388000       0.05248100      -0.03450930       0.00486671       0.05986936      -0.03793273      -0.01903944
H       19.94920000      -0.77013100       2.37573000      -0.00425139       0.00844519       0.00221016      -0.05286393       0.02239618      -0.01967911
H       17.99820000       0.91749600       3.37269000      -0.06843730       0.01168060      -0.00078109      -0.00609314       0.01820325       0.03758136
O       15.76860000       8.94264000       6.91878000       0.00241827       0.03648360      -0.01195840       0.04142181       0.08382200       0.04599688
H       17.53130000       8.74572000       7.03857000       0.02366720       0.00170752      -0.00625602      -0.03681712      -0.06474298      -0.04996268
H       15.61830000      10.65760000       6.11204000      -0.00504868      -0.02961590       0.01043180      -0.00960748      -0.01371770       0.01020103
O       23.71440000      15.06910000       5.76579000      -0.04492760       0.02307610       0.02655700      -0.02269141      -0.00827094      -0.00695539
H       22.74960000      16.67380000       5.44948000       0.02334460      -0.03358380       0.01511520       0.02465338       0.01375110      -0.00398823
H       22.89530000      14.12650000       7.23737000       0.00412250       0.00775185      -0.01970090      -0.00909545      -0.00720936      -0.00077595
O       -0.07846200       4.81985000      12.18160000      -0.05435810       0.00764164      -0.09918800      -0.03163508       0.04203122      -0.00676708
H       -2.46331000       5.96732000      12.28200000       0.02898330      -0.00279872      -0.01468320       0.02790967      -0.00831814       0.02018103
H        0.97155700       5.55758000      13.27690000       0.06023890       0.04044900       0.06602520       0.00749617      -0.03383212      -0.01432677
O        3.74662000      16.63260000      14.82110000      -0.01329320      -0.01347300       0.00581229      -0.07971743      -0.07727851       0.12166092
H        5.23439000      17.50510000      14.24290000      -0.01426220       0.00606917       0.00950147       0.05843752       0.07692285      -0.12303133
H        2.62035000      17.78910000      15.67290000       0.01761440      -0.00016149      -0.00470925       0.01773836       0.00101155       0.00341447
O       20.56420000       6.36858000      17.58170000       0.01251660      -0.01240000       0.02185690       0.04932624       0.00621513      -0.00079604
H       20.38690000       7.58760000      16.27720000      -0.00037513       0.01464170       0.00387280      -0.01650327      -0.00975534      -0.01605493
H       20.99250000       7.07178000      19.24600000      -0.01128910      -0.00146587      -0.02420220      -0.02816823       0.00254660       0.01357646
O       16.59210000      17.47700000       2.56315000      -0.00545575       0.01564280      -0.01930260      -0.01157782       0.02167472       0.07782280
H       15.45130000      18.32590000       3.80769000       0.01566690      -0.01339050      -0.00858555       0.00333720       0.03947900      -0.01065364
H       16.93410000      18.66400000       1.14919000      -0.00186015      -0.01377450       0.02772870       0.01504269      -0.06503630      -0.05893213
O        0.38731300       5.67442000       7.47012000       0.08091430       0.01010970      -0.04479420      -0.06917264       0.00795271       0.05109713
H        0.31322100       6.01875000      10.43110000       0.00037802      -0.05236860       0.01620160       0.03695729      -0.01937896      -0.01001438
H        2.26169000       0.70404800       9.09880000       0.00713909       0.00170982      -0.00535936       0.02198357       0.01128751      -0.03877188
O       18.07170000      10.31450000      21.02080000       0.12075800       0.28475500      -0.05767090      -0.02257348      -0.04996716      -0.05419255
H       19.99130000      10.89940000      22.42190000      -0.01603130      -0.01710860      -0.00929658      -0.00753846       0.00691136       0.04856690
H       16.97460000      11.86870000      21.31620000      -0.01685930      -0.01036500       0.00500286       0.03393216       0.05052076      -0.00067361
O        6.11755000       2.45728000       3.64989000      -0.05219870      -0.00113100      -0.08820670       0.00962283      -0.00133721      -0.00592193
H        6.60546000       2.60538000       5.34518000       0.00035517       0.00340764       0.05381310      -0.02677514      -0.00891080       0.03493699
H        4.29945000       2.66784000       3.08424000       0.03838000      -0.00679647       0.02552430       0.01157160       0.01580316      -0.03456270
O        5.27057000      11.61990000      15.03620000       0.00720555       0.02553580       0.03409440      -0.00260489      -0.06454640       0.02336997
H        6.96128000      10.91710000      14.98020000      -0.00156855       0.01228830       0.00678601       0.02038782       0.05257875       0.01398501
H        5.29864000      13.23910000      16.10110000       0.00130586      -0.03899800      -0.03240840      -0.01437073       0.01250690      -0.03428900
O        1.56585000      12.65810000      12.24220000       0.00291223       0.00534926       0.00539674      -0.10010232       0.00886191       0.01251185
H        3.32845000      12.24270000      12.64420000      -0.01557070       0.00435282       0.00005310       0.00478962       0.03576992       0.00551373
H        1.36117000      14.29570000      13.03480000       0.00639560      -0.00683384      -0.00574140       0.09284394      -0.04916815      -0.01833228
O       14.08660000      18.59530000       6.43387000       0.00867005       0.04226340       0.02317010       0.01922949       0.02675233      -0.01946637
H       12.51200000      17.85260000       6.03118000      -0.01710620      -0.00132747      -0.00217364      -0.00749247      -0.02304709       0.01664830
H       13.83250000      20.44080000       6.87381000      -0.00602905      -0.02146750      -0.00373810      -0.01146097      -0.00325508      -0.00173745
O       22.14490000      15.09300000      18.28100000       0.03382970       0.07734450       0.00291543       0.10964619       0.00208062       0.01471824
H       22.03650000      14.73690000      20.13170000       0.00036588       0.00880035      -0.02125300      -0.07166142       0.03399932       0.00113572
H       22.65380000      17.10750000      18.24360000      -0.02792580      -0.07880740       0.00275460      -0.03850528      -0.03595568      -0.01659708
O       12.80250000      21.32600000      21.07360000      -0.00637296       0.01159710      -0.00194571       0.04887868       0.04379776       0.03999094
H        6.85127000      20.10590000       7.79234000      -0.00882942       0.00816909       0.00194205      -0.02197517      -0.05492839      -0.06384571
H       11.63560000      19.92160000      20.85080000       0.01021170       0.00984907       0.00608949      -0.02318612       0.00950973       0.01667911
O        3.02103000      12.13240000       3.62469000      -0.00148973      -0.01132680      -0.04620390       0.00980017       0.00447792       0.05136087
H        1.60652000      13.10950000       4.48857000       0.02146730       0.01299290      -0.00743111      -0.00356109       0.02295645       0.00162207
H        3.92597000      13.26080000       2.43683000      -0.01053190      -0.01982210       0.03679440      -0.00964684      -0.01928838      -0.05304640
O       19.16160000       6.89040000      11.97660000      -0.07184600      -0.06805140       0.04044140      -0.01622007      -0.01942529      -0.01457718
H       18.83350000       8.17595000      10.77680000       0.00732951       0.01370930      -0.01692430      -0.02260977       0.03238736      -0.00082442
H       17.59840000       5.15653000      12.23800000       0.04650940       0.04178650      -0.02307150       0.04750902      -0.01886994       0.01346375
O       17.38550000      14.39090000       8.44910000      -0.01157460       0.02066380       0.02229430      -0.00529050      -0.05320816      -0.03110249
H       18.68840000      13.12670000       8.38368000       0.01521030      -0.01332050      -0.00560867       0.00212020       0.00355742       0.06492428
H       16.01570000      14.22550000       7.29006000       0.00665129      -0.00421277      -0.01461300       0.00169384       0.05675987      -0.03861832
O       10.42200000       6.57962000      17.04410000       0.00908088       0.00013858      -0.05666140       0.02188250      -0.00640063       0.01432657
H       11.74230000       5.81716000      15.92130000      -0.01714270       0.00025205       0.01863870       0.05246478       0.00265911       0.02182443
H       10.73820000       6.09746000      18.71660000       0.00964167      -0.00915677       0.03319170      -0.06833478       0.00003144      -0.03774844
O       20.31260000      20.60340000      10.08670000       0.00005875       0.01963550       0.00439936       0.08122793       0.02422424      -0.02897571
H       20.18420000      21.48620000       8.47756000      -0.00173197      -0.02386810       0.00518792      -0.03753105       0.03256784      -0.01270860
H       19.38850000      19.06390000      10.21620000      -0.00641065      -0.00480142      -0.01270600      -0.05960219      -0.04386218       0.02796779
O        3.72873000      20.63200000      20.07170000       0.04883620      -0.00967727      -0.02350760      -0.01063180       0.02983200       0.01773260
H        3.21418000      22.23800000      20.86120000       0.00018381      -0.00123658       0.00568475       0.00672613       0.03577538      -0.01267902
H        5.46982000      21.12180000      19.30530000      -0.04523810      -0.00699231       0.01302590       0.00185514      -0.06280881      -0.00184392
O        8.28772000       2.73805000       7.71630000       0.02926110       0.02875140      -0.01680100      -0.05647524      -0.00148919      -0.01776662
H        7.86336000       2.25452000       9.46594000       0.00384951       0.02259560      -0.00401998       0.05185402       0.03754733      -0.03178757
H        9.23809000       4.44979000       7.48558000      -0.02642750      -0.04401150       0.02688080      -0.00922994      -0.03928359       0.05242969
O        5.45674000       8.75407000       7.90072000      -0.03865220      -0.02134400      -0.00358532       0.02228452      -0.04719684      -0.02358503
H        4.98692000       9.72449000       9.34835000       0.00495796      -0.00797239       0.00963179      -0.01400701      -0.01151794      -0.01327349
H        4.83708000       9.94959000       6.68954000       0.00530746       0.00141275      -0.01754900      -0.01151677       0.05309243       0.03852784
O       17.26360000       2.00865000      11.57920000       0.01179090       0.01771660      -0.00178402      -0.11685318       0.05688496       0.00139588
H       16.37120000       1.33876000      10.07810000       0.00862798      -0.00266845       0.00592216       0.12643999      -0.05995428      -0.00694794
H       18.70980000       1.06000000      12.27580000      -0.01240430       0.00229260      -0.01398660      -0.01289330       0.00565093       0.00429729
O        9.50585000       1.73105000       0.41224600       0.01398240      -0.01525380      -0.01061610      -0.00593190       0.05601369      -0.02761589
H       10.18980000       0.07167300       0.69469500       0.00257762      -0.00385889      -0.00548957      -0.03438977      -0.00347507       0.01745985
H        8.24180000       2.14290000       1.66579000      -0.01726740       0.00066397       0.01652280       0.04070883      -0.05680165       0.01420632
O        2.38986000       0.89689600      22.61450000      -0.00010090       0.02668660      -0.00145216      -0.06584813       0.03356278       0.06593246
H        1.34317000       0.53720600      24.04660000       0.00012022       0.00309409       0.00895346       0.06819421      -0.01238491      -0.07675636
H        1.56193000       2.37692000      21.89160000       0.00246178      -0.01423840       0.00157784      -0.00484262      -0.01494408       0.00998885
O        6.40900000      20.57320000      13.78060000      -0.01452280       0.03344750      -0.03763660       0.02789732      -0.04953010      -0.04814510
H        6.51328000      22.31300000      14.45960000       0.00299504      -0.03527720      -0.00345062      -0.05091454       0.03599732      -0.02192346
H        5.63696000      20.71310000      12.03600000       0.01880160       0.00243315       0.03531430       0.01792152       0.02807973       0.06828477
O       13.97040000      20.71320000      15.55420000       0.05774320       0.06638000      -0.03394310      -0.03535843       0.02460503      -0.07214092
H       12.44650000      19.79110000      15.61320000      -0.02047030      -0.02105450      -0.01242800      -0.00543284       0.02344590       0.04003307
H       15.14680000      20.33540000      13.98710000      -0.04069520      -0.02204230       0.02796450       0.04431181      -0.04263283       0.03730248
O        6.05476000       4.67363000      18.06570000       0.02367750       0.02450790      -0.03548960       0.01892186       0.05525339       0.02816817
H        4.45636000       4.92284000      17.20560000       0.00949365       0.00834134       0.00210255       0.00409316       0.00007323      -0.00063880
H        7.44331000       5.48885000      16.83750000      -0.03422190      -0.02386390       0.04304900      -0.02031311      -0.06145901      -0.02641790
O       20.32730000       7.28133000       4.60489000      -0.01894060       0.00021359       0.00186681      -0.00108463      -0.03739064       0.01719713
H       19.10990000       6.46377000       3.45995000       0.01504130      -0.00058123       0.01164730      -0.02917977       0.04659590       0.03217134
H       20.41940000       6.61100000       6.37380000       0.01165190       0.00401454      -0.03995970       0.03771023      -0.00957305      -0.05655998
O       21.32920000       1.76295000      20.24450000      -0.07700570       0.06932970      -0.04997750      -0.00999050      -0.01789776      -0.07496127
H       21.23030000       0.02771500      19.67060000      -0.00219757       0.00487100      -0.00241909      -0.00143426       0.03390606       0.00520796
H       19.53340000       3.07725000      18.94760000       0.08236950      -0.06028820       0.05549720       0.00507254       0.00714438       0.07186900
O        0.52228300       2.13415000       3.76699000       0.02599570       0.01356240       0.01840870       0.02602415      -0.04546288       0.01552988
H       -1.31282000       2.07626000       3.68844000       0.00065790      -0.00124115      -0.00376178      -0.01417919       0.00296298      -0.02269770
H        0.75223600       3.21734000       5.27926000      -0.00404986      -0.00764914      -0.00721044      -0.00808427       0.05390739       0.01249814
O       19.82480000      12.77260000      14.73140000       0.00935662       0.00345031       0.01005460      -0.04543646       0.00582683      -0.00968274
H       21.49330000      12.16040000      15.31710000      -0.02374160       0.00856695      -0.01313110       0.03437576      -0.01646870       0.00390271
H       19.81060000      14.40170000      15.63360000       0.00294720      -0.01880000      -0.00323761       0.00580240       0.00605061       0.00361346
O       11.67720000       5.31815000      22.09210000      -0.01215120      -0.00497781       0.01469040       0.05910941      -0.16107732       0.03574692
H       10.76900000       3.63919000      22.77060000       0.00357563       0.01684950      -0.01151640      -0.06842538       0.13315910       0.00376076
H       13.23710000       4.65318000      21.52590000       0.02271760       0.00443890      -0.00617235       0.01411491       0.02904942      -0.04158482
O       10.67240000      14.59950000      18.50820000       0.00338130      -0.01526830      -0.03629690       0.02007026      -0.04163956       0.01507043
H       10.40390000      13.32790000      16.85730000       0.01558960       0.03527840       0.04891560      -0.00010304       0.00779929      -0.01103090
H       11.51920000      16.15650000      17.97140000      -0.01656080      -0.02474900      -0.00783391      -0.02443862       0.04215386       0.00101451
O       14.55340000      12.49390000      12.81200000       0.03539140      -0.00310086      -0.02204680       0.03158708       0.04497776      -0.01097086
H       16.11300000      12.75570000      13.78460000      -0.00433263      -0.01802210      -0.00117520      -0.05224409      -0.07239646       0.01055167
H       15.19470000      11.71700000      11.19750000      -0.01061680       0.01925420       0.02422110       0.01968622       0.01789253      -0.00782478
O        2.98872000      17.43200000       0.93169700       0.01094610      -0.01351740      -0.01782350      -0.09259577      -0.08934272      -0.08637042
H        3.53032000      18.39570000      -0.61233900      -0.01112000      -0.01700120       0.00750052      -0.07357186       0.07677469       0.07746993
H        3.14123000      15.58420000       0.60654200      -0.00554449       0.04319480      -0.00383123       0.16539585       0.00996359       0.00783414
O       10.46640000      11.11490000      15.25310000      -0.01954800       0.04484010      -0.03351500      -0.03610006      -0.06556283       0.05957775
H       11.77480000      11.37250000      14.00340000       0.00558888       0.00358157       0.00351937       0.05459040       0.02842877      -0.02859498
H       10.68850000       9.54971000      15.99600000       0.01069230      -0.05150100       0.03121800      -0.02314197       0.03578908      -0.02453273
O        2.58390000       7.35432000      15.72770000      -0.00263942      -0.00246193      -0.00770931      -0.00840891      -0.02389914      -0.05670828
H        1.17863000       6.85880000      16.76180000      -0.00281699       0.01640970       0.00313096      -0.00057256       0.00040679       0.00919367
H        3.02083000       9.16774000      15.68090000      -0.00469388      -0.01213520       0.00712927       0.00608446       0.01953199       0.04590103
O       13.30230000       0.72030300       7.92438000      -0.05169580       0.01032570       0.00952663       0.01434600       0.00272630      -0.04811355
H       14.45990000       4.84014000       3.47001000       0.02060180      -0.08246410      -0.01395270      -0.00551767       0.01242884       0.02740048
H       11.33090000       1.13698000       8.18490000       0.06979070      -0.01406610      -0.01245730      -0.00841528      -0.01944901       0.01249926
O       11.89630000      16.82390000      22.45160000       0.01129380       0.07570430       0.12418200       0.08050614      -0.00340777      -0.06215641
H       10.91420000      16.45690000      24.08070000       0.02302080       0.01423950      -0.02022270      -0.01511527      -0.01155533       0.04222386
H       11.37080000      15.67330000      21.40370000      -0.07021450      -0.09212870      -0.09558540      -0.06198394       0.00948955       0.01704313
O       10.03480000      16.88260000      13.94430000       0.00561568       0.00147287       0.00375890       0.00504188       0.00760028       0.00712403
H       11.22060000      17.08910000      12.57830000      -0.00426424       0.00493457      -0.00136633      -0.03004643      -0.00008241      -0.01085599
H        8.78772000      18.22390000      13.95740000       0.00805475       0.00205094      -0.00988773       0.01427192      -0.01477254       0.00637954
O        7.54702000      11.97790000       5.42806000       0.13462900      -0.01122430       0.00684284       0.03426082       0.02183168      -0.00450717
H        8.88892000       9.92718000       3.93322000      -0.03129320       0.04052070       0.02971350      -0.04656251      -0.03340086       0.00726611
H        9.37805000      12.58030000       7.23969000      -0.08598020      -0.03115540      -0.06763320       0.01474311       0.01048221      -0.00299114
O       15.64350000       7.41844000      15.72490000      -0.00763809       0.00203049      -0.00227303       0.01314198      -0.07203881      -0.00015205
H       16.43900000       6.11057000      16.72900000       0.00276256       0.01789590      -0.00502053      -0.00521309      -0.00915546       0.00626719
H       16.71810000       8.88172000      15.46320000      -0.00280088      -0.01735940       0.01112100       0.00243521       0.07994261      -0.00625826
O       22.72160000      20.21930000       5.79556000      -0.00029682      -0.00622357      -0.03363550      -0.05106298      -0.04891067       0.00647117
H       22.58500000      19.91540000       3.96756000       0.00451286       0.00876576       0.02350330       0.04188840       0.04711847      -0.00853376
H       24.02220000      21.48500000       5.94098000      -0.00026370      -0.00107569      -0.00259111       0.01163163       0.00216610       0.00869779
O       19.30370000      20.56800000      23.04150000       0.09855410      -0.04218930       0.00732330      -0.10928869       0.09610809      -0.00312510
H       21.21610000      19.59390000      22.86830000      -0.09072240       0.03638040       0.00588508       0.08676208      -0.15190276      -0.00592976
H       18.68150000      20.35980000      21.38830000      -0.00714364       0.00384625      -0.02265780       0.02389695       0.05204296       0.01034308
O       15.48740000       2.94180000       2.95052000      -0.20873800      -0.05301300       0.18913800       0.01416522       0.05160206      -0.02044279
H       16.28730000       3.70579000       1.88428000       0.21975600       0.17159500      -0.20489200       0.00020835      -0.01262077      -0.02610982
H       14.76280000       2.11837000       1.45453000      -0.04190840      -0.02016450       0.01099110      -0.01123954      -0.04424173       0.04651796
O       11.89040000       6.83295000       7.63754000      -0.00746238      -0.03736850      -0.01093870      -0.10992878      -0.14027532      -0.04627615
H       13.27900000       5.55251000       7.30263000      -0.03463980       0.03541320       0.01031630      -0.01062483      -0.02625571      -0.01093196
H       11.52220000       7.85743000       6.14867000       0.01331190      -0.01740080       0.00988255       0.12089753       0.16448444       0.05301016
O       15.77030000      14.39660000      22.00820000      -0.03401870      -0.04804310      -0.10925700       0.03667454      -0.00736871       0.04583071
H       13.99520000      15.23470000      21.72310000       0.04215670      -0.01035480       0.00871280      -0.04648559       0.01438205      -0.04113696
H       16.05780000      15.04590000      23.51730000       0.02424050       0.04669180       0.10845200       0.02086974      -0.00493186      -0.00458141
O       18.05370000       5.16718000      22.91980000       0.00678147      -0.01301250       0.00814495      -0.03046994       0.11293138      -0.00170667
H       19.47690000       3.95390000      22.69580000      -0.02489520       0.01992600       0.00363537      -0.00014616      -0.08301600      -0.03696065
H       17.82630000       8.88250000      21.49450000      -0.06722560      -0.26612000       0.09224590       0.02106687      -0.01908251       0.03836903
O       15.31800000      17.63190000      11.88350000       0.00627872      -0.06336950       0.00334837      -0.00178314       0.00716831      -0.02416404
H       15.47710000      15.38100000      12.51740000      -0.01713460       0.08914570      -0.04279010       0.00004655      -0.01273027       0.02090284
H       15.38480000      17.63310000       9.98114000      -0.00046156      -0.00713184       0.03535600       0.00187074      -0.00208508       0.00503916
O       21.84450000      10.94580000       1.14362000      -0.01397460      -0.03381980       0.03555630       0.00126885      -0.01167828      -0.00197030
H       21.38760000       9.78492000       2.69528000       0.00765496       0.01963860      -0.03551860       0.00004923       0.00885891       0.00186938
H       23.62740000      11.47010000       1.54036000      -0.01059440      -0.00754169      -0.00596928      -0.00154845       0.00327585      -0.00375470